/*--------------------------------*- C++ -*----------------------------------*\
| =========                 |                                                 |
| \\      /  F ield         | OpenFOAM: The Open Source CFD Toolbox           |
|  \\    /   O peration     | Version:  v2012                                 |
|   \\  /    A nd           | Website:  www.openfoam.com                      |
|    \\/     M anipulation  |                                                 |
\*---------------------------------------------------------------------------*/
FoamFile
{
    version     2.0;
    format      ascii;
    class       volVectorField;
    location    "560";
    object      U;
}
// * * * * * * * * * * * * * * * * * * * * * * * * * * * * * * * * * * * * * //

dimensions      [0 1 -1 0 0 0 0];


internalField   nonuniform List<vector> 
6018
(
(0.0271975 -0.512324 0)
(0.0258378 -0.560307 0)
(0.0241546 -0.602829 0)
(0.0217481 -0.639457 0)
(0.0193935 -0.670993 0)
(0.0177794 -0.698664 0)
(0.0166718 -0.723592 0)
(0.0159582 -0.746595 0)
(0.0155358 -0.768306 0)
(0.0153325 -0.789199 0)
(0.0153099 -0.809649 0)
(0.0154374 -0.829951 0)
(0.0156384 -0.85029 0)
(0.0158273 -0.870731 0)
(0.0159559 -0.891317 0)
(0.0159348 -0.912228 0)
(0.0156255 -0.933768 0)
(0.0146846 -0.955386 0)
(0.0109529 -0.973716 0)
(0.00403555 -0.985799 0)
(0.0523822 -0.959539 0)
(0.0443793 -0.97696 0)
(0.0373704 -0.989001 0)
(0.0316517 -0.997438 0)
(0.027221 -1.00396 0)
(0.0239083 -1.00883 0)
(0.0215108 -1.0124 0)
(0.0198266 -1.01493 0)
(0.0186904 -1.01665 0)
(0.0179832 -1.01771 0)
(0.0176299 -1.01825 0)
(0.0175405 -1.01843 0)
(0.0174915 -1.01834 0)
(0.0174793 -1.01802 0)
(0.0175514 -1.01738 0)
(0.0176001 -1.01648 0)
(0.0174592 -1.01547 0)
(0.0173948 -1.01397 0)
(0.0176552 -1.00914 0)
(0.0087547 -1.00179 0)
(0.0605656 -1.06429 0)
(0.0499787 -1.06751 0)
(0.0411628 -1.069 0)
(0.0340687 -1.06916 0)
(0.0285275 -1.06829 0)
(0.0243066 -1.06655 0)
(0.0211649 -1.06413 0)
(0.0188708 -1.06114 0)
(0.0172213 -1.0577 0)
(0.0160428 -1.05387 0)
(0.0151925 -1.04977 0)
(0.0145962 -1.04546 0)
(0.0143674 -1.04035 0)
(0.0143303 -1.03516 0)
(0.0141527 -1.02996 0)
(0.0137839 -1.02458 0)
(0.013136 -1.01901 0)
(0.0121114 -1.01288 0)
(0.0101499 -1.00614 0)
(0.00491343 -1.00111 0)
(0.061386 -1.09627 0)
(0.0495741 -1.09543 0)
(0.0398154 -1.09337 0)
(0.0319994 -1.09038 0)
(0.0258916 -1.08669 0)
(0.0212172 -1.08244 0)
(0.0177079 -1.07774 0)
(0.0151216 -1.07266 0)
(0.0132504 -1.06725 0)
(0.0119106 -1.06156 0)
(0.0109377 -1.05564 0)
(0.0102298 -1.04955 0)
(0.00979504 -1.04327 0)
(0.00951629 -1.03677 0)
(0.00921835 -1.03012 0)
(0.00880987 -1.02348 0)
(0.00820286 -1.01684 0)
(0.00729861 -1.01014 0)
(0.00563032 -1.00403 0)
(0.00227195 -1.00064 0)
(0.0604741 -1.11181 0)
(0.0475509 -1.10892 0)
(0.036983 -1.10485 0)
(0.0285869 -1.10001 0)
(0.0220518 -1.09466 0)
(0.0170452 -1.08895 0)
(0.0132622 -1.08297 0)
(0.0104409 -1.07677 0)
(0.00836242 -1.07038 0)
(0.00683924 -1.06382 0)
(0.00571012 -1.05713 0)
(0.0048736 -1.05034 0)
(0.00429411 -1.0434 0)
(0.00390026 -1.03631 0)
(0.00358195 -1.0292 0)
(0.00327647 -1.0222 0)
(0.00294704 -1.01537 0)
(0.00254459 -1.00878 0)
(0.00187981 -1.00328 0)
(0.00070313 -1.00052 0)
(0.0581795 -1.12239 0)
(0.0439929 -1.11776 0)
(0.0326647 -1.11194 0)
(0.0238325 -1.10556 0)
(0.0170448 -1.09892 0)
(0.0118782 -1.09218 0)
(0.00797766 -1.08539 0)
(0.00505865 -1.07856 0)
(0.00289214 -1.07168 0)
(0.00129075 -1.06477 0)
(9.5004e-05 -1.05783 0)
(-0.000799894 -1.05083 0)
(-0.00145311 -1.04373 0)
(-0.00189955 -1.03653 0)
(-0.00217736 -1.02934 0)
(-0.00230913 -1.02229 0)
(-0.00229843 -1.01543 0)
(-0.00213457 -1.00881 0)
(-0.00165404 -1.00329 0)
(-0.000631237 -1.00052 0)
(0.0543878 -1.12901 0)
(0.0391258 -1.12257 0)
(0.0271623 -1.11492 0)
(0.0181294 -1.10715 0)
(0.0113227 -1.09953 0)
(0.00620462 -1.09215 0)
(0.0023532 -1.085 0)
(-0.000536932 -1.07802 0)
(-0.00269522 -1.07116 0)
(-0.00430067 -1.06439 0)
(-0.00551866 -1.05769 0)
(-0.00645216 -1.051 0)
(-0.00717439 -1.04425 0)
(-0.0076603 -1.03741 0)
(-0.00791479 -1.03054 0)
(-0.00791729 -1.02374 0)
(-0.00760725 -1.017 0)
(-0.00692408 -1.01021 0)
(-0.00542564 -1.00406 0)
(-0.00220816 -1.00065 0)
(0.0495964 -1.12633 0)
(0.0325602 -1.11703 0)
(0.0202317 -1.10784 0)
(0.0114707 -1.099 0)
(0.00506754 -1.09089 0)
(0.000311572 -1.08347 0)
(-0.00325609 -1.07672 0)
(-0.0059062 -1.07043 0)
(-0.00786856 -1.06451 0)
(-0.00932404 -1.05885 0)
(-0.010485 -1.05315 0)
(-0.0114422 -1.04754 0)
(-0.0122302 -1.04172 0)
(-0.0127774 -1.03623 0)
(-0.0130425 -1.03062 0)
(-0.013037 -1.02499 0)
(-0.0126422 -1.01925 0)
(-0.0118038 -1.013 0)
(-0.00998532 -1.00618 0)
(-0.00486345 -1.00112 0)
(0.0396785 -1.08325 0)
(0.0225296 -1.06925 0)
(0.0115308 -1.05718 0)
(0.0040574 -1.04782 0)
(-0.00126559 -1.04094 0)
(-0.00517595 -1.03581 0)
(-0.00807415 -1.03194 0)
(-0.0102638 -1.02895 0)
(-0.011962 -1.02658 0)
(-0.0133158 -1.02466 0)
(-0.0143756 -1.02311 0)
(-0.0151643 -1.02183 0)
(-0.015784 -1.02071 0)
(-0.0163125 -1.0196 0)
(-0.0167512 -1.01838 0)
(-0.0170306 -1.01709 0)
(-0.0170836 -1.01581 0)
(-0.0171843 -1.01414 0)
(-0.0175337 -1.00916 0)
(-0.00872694 -1.0018 0)
(0.0177611 -0.790021 0)
(0.00847652 -0.764379 0)
(0.00154827 -0.74937 0)
(-0.00269398 -0.744303 0)
(-0.00576589 -0.74533 0)
(-0.0077593 -0.751025 0)
(-0.0094948 -0.760165 0)
(-0.0108724 -0.771944 0)
(-0.0119748 -0.785731 0)
(-0.0128863 -0.801093 0)
(-0.0136638 -0.817723 0)
(-0.0143287 -0.835383 0)
(-0.0148672 -0.85388 0)
(-0.0152956 -0.873047 0)
(-0.0156068 -0.892757 0)
(-0.0157139 -0.913068 0)
(-0.0154877 -0.934211 0)
(-0.0146027 -0.95559 0)
(-0.0109158 -0.97379 0)
(-0.00401851 -0.985809 0)
(-0.00159286 0.0501024 0)
(0.00141726 0.0616624 0)
(0.00446787 0.0627223 0)
(0.00526236 0.0542145 0)
(0.00419723 0.0405589 0)
(0.00209447 0.026714 0)
(0.000543326 0.0160606 0)
(-0.000369067 0.0096532 0)
(-0.0010154 0.00766915 0)
(-0.00155285 0.010305 0)
(-0.00276386 0.0183681 0)
(-0.00317341 0.030039 0)
(-0.00217996 0.0418704 0)
(-0.00056682 0.0507891 0)
(0.000575514 0.0545277 0)
(0.000581071 0.0540185 0)
(-0.000569506 0.0519762 0)
(-0.00269548 0.0508082 0)
(-0.00469242 0.0510519 0)
(-0.00439154 0.0516101 0)
(-0.00286632 0.0507214 0)
(-0.00163129 0.0478396 0)
(-0.000987931 0.0419874 0)
(0.000122579 0.0313071 0)
(0.00181181 0.0156049 0)
(0.00343892 -0.0129388 0)
(0.00407469 -0.0484938 0)
(0.00645783 -0.0912147 0)
(0.0112804 -0.142639 0)
(0.0172497 -0.201084 0)
(0.0235281 -0.266203 0)
(0.027359 -0.333778 0)
(0.0284362 -0.398483 0)
(0.0282072 -0.458445 0)
(-0.021465 0.108179 0)
(-0.00936141 0.127062 0)
(0.00368026 0.134495 0)
(0.0142145 0.129818 0)
(0.0193973 0.114412 0)
(0.0187205 0.0922655 0)
(0.0138113 0.0693528 0)
(0.00682489 0.0515071 0)
(-0.000795811 0.042501 0)
(-0.00810029 0.0430488 0)
(-0.0152 0.053879 0)
(-0.0178201 0.0682245 0)
(-0.0157283 0.0810252 0)
(-0.0104331 0.0894612 0)
(-0.00357294 0.0915253 0)
(0.000971204 0.0896731 0)
(0.00215442 0.0838222 0)
(0.00222357 0.0744073 0)
(0.00264418 0.0604969 0)
(0.00301706 0.041189 0)
(0.00445762 0.0134969 0)
(0.0104453 -0.0245842 0)
(0.0206494 -0.0830142 0)
(0.0340397 -0.16336 0)
(0.0482228 -0.255113 0)
(0.0606516 -0.354207 0)
(0.0708539 -0.455214 0)
(0.0789314 -0.554143 0)
(0.0842696 -0.646354 0)
(0.0860508 -0.728791 0)
(0.0839621 -0.799099 0)
(0.0783578 -0.856221 0)
(0.0702288 -0.901044 0)
(0.0611531 -0.934868 0)
(-0.0411213 0.15729 0)
(-0.020375 0.174549 0)
(0.00123593 0.18003 0)
(0.020072 0.175412 0)
(0.0323869 0.161778 0)
(0.0362067 0.141234 0)
(0.0316414 0.11753 0)
(0.0206889 0.0960608 0)
(0.00623994 0.0821788 0)
(-0.00893386 0.0782005 0)
(-0.0228096 0.0833146 0)
(-0.0241687 0.0887603 0)
(-0.0191156 0.0900182 0)
(-0.00946248 0.0857174 0)
(7.00015e-05 0.0759878 0)
(0.00737276 0.0614775 0)
(0.0122111 0.0406488 0)
(0.0167714 0.0108088 0)
(0.0240796 -0.032498 0)
(0.0372998 -0.0974714 0)
(0.0571588 -0.185702 0)
(0.0808363 -0.290762 0)
(0.104305 -0.405379 0)
(0.123969 -0.52127 0)
(0.137883 -0.632128 0)
(0.146077 -0.732888 0)
(0.148655 -0.820298 0)
(0.14617 -0.892534 0)
(0.139383 -0.949092 0)
(0.128925 -0.990134 0)
(0.115813 -1.0187 0)
(0.101371 -1.0378 0)
(0.0867485 -1.0502 0)
(0.0729183 -1.05875 0)
(-0.0577184 0.192044 0)
(-0.0278625 0.202739 0)
(0.00232514 0.201691 0)
(0.0279259 0.195637 0)
(0.045329 0.18217 0)
(0.0526959 0.163702 0)
(0.0490938 0.142446 0)
(0.0355812 0.12192 0)
(0.0155453 0.106549 0)
(-0.00576066 0.0985565 0)
(-0.0223641 0.0921657 0)
(-0.0216547 0.0819007 0)
(-0.012128 0.0659612 0)
(0.00303403 0.0443731 0)
(0.0175574 0.0171227 0)
(0.0295953 -0.0188476 0)
(0.0433749 -0.0703979 0)
(0.0634567 -0.143545 0)
(0.0904463 -0.239585 0)
(0.121662 -0.354104 0)
(0.152957 -0.478027 0)
(0.179939 -0.600625 0)
(0.199386 -0.713281 0)
(0.209778 -0.810593 0)
(0.21143 -0.890449 0)
(0.205765 -0.952718 0)
(0.194483 -0.999035 0)
(0.179347 -1.03162 0)
(0.162076 -1.054 0)
(0.143998 -1.06903 0)
(0.125786 -1.07982 0)
(0.107929 -1.08751 0)
(0.0909443 -1.09265 0)
(0.0752729 -1.09549 0)
(-0.0672147 0.204355 0)
(-0.0289019 0.205593 0)
(0.00673285 0.201139 0)
(0.0364076 0.192163 0)
(0.0575779 0.178108 0)
(0.067596 0.160837 0)
(0.0647728 0.141748 0)
(0.0496295 0.123003 0)
(0.0260503 0.10682 0)
(0.00261807 0.0918817 0)
(-0.00931344 0.0721106 0)
(-0.00480368 0.0460455 0)
(0.0103385 0.0125041 0)
(0.030228 -0.0289351 0)
(0.0526874 -0.0829187 0)
(0.0790104 -0.15637 0)
(0.11158 -0.252463 0)
(0.149502 -0.367465 0)
(0.188608 -0.493108 0)
(0.223373 -0.618701 0)
(0.249409 -0.733967 0)
(0.26465 -0.831955 0)
(0.26897 -0.909917 0)
(0.263726 -0.968547 0)
(0.251142 -1.01074 0)
(0.233679 -1.04028 0)
(0.21355 -1.06095 0)
(0.192453 -1.07587 0)
(0.171399 -1.08747 0)
(0.150843 -1.09654 0)
(0.130879 -1.10362 0)
(0.111531 -1.10888 0)
(0.093 -1.11208 0)
(0.0757575 -1.11302 0)
(-0.0690782 0.189882 0)
(-0.0252701 0.185226 0)
(0.014097 0.177468 0)
(0.0464953 0.166613 0)
(0.0698695 0.1528 0)
(0.0814677 0.136686 0)
(0.0791582 0.119206 0)
(0.0632069 0.101374 0)
(0.0388907 0.0822847 0)
(0.0189105 0.0585718 0)
(0.0137804 0.0259306 0)
(0.025422 -0.0170341 0)
(0.0490222 -0.0722146 0)
(0.0804849 -0.143625 0)
(0.118676 -0.234976 0)
(0.162381 -0.345609 0)
(0.208369 -0.469159 0)
(0.251827 -0.595874 0)
(0.287105 -0.714939 0)
(0.310376 -0.817561 0)
(0.320483 -0.899251 0)
(0.318763 -0.960129 0)
(0.307801 -1.00328 0)
(0.290505 -1.03318 0)
(0.26948 -1.05424 0)
(0.246731 -1.06999 0)
(0.223593 -1.08276 0)
(0.200787 -1.09375 0)
(0.17851 -1.10335 0)
(0.156741 -1.11145 0)
(0.135453 -1.11796 0)
(0.114643 -1.12274 0)
(0.0943848 -1.12531 0)
(0.0752655 -1.12519 0)
(-0.0631921 0.157902 0)
(-0.0174514 0.149074 0)
(0.0230303 0.138882 0)
(0.0568212 0.127043 0)
(0.0817293 0.113213 0)
(0.0946081 0.0976008 0)
(0.092916 0.0805876 0)
(0.0773588 0.0615651 0)
(0.0566843 0.0374413 0)
(0.0448321 0.0037968 0)
(0.0501889 -0.0444041 0)
(0.0737502 -0.110225 0)
(0.111676 -0.195431 0)
(0.159057 -0.29939 0)
(0.21095 -0.417886 0)
(0.262793 -0.54351 0)
(0.308565 -0.666357 0)
(0.343079 -0.776284 0)
(0.363233 -0.866133 0)
(0.368907 -0.93396 0)
(0.362566 -0.982142 0)
(0.347692 -1.01535 0)
(0.327555 -1.03853 0)
(0.304674 -1.05582 0)
(0.280673 -1.06999 0)
(0.256427 -1.08249 0)
(0.232396 -1.09387 0)
(0.208791 -1.1042 0)
(0.185582 -1.11334 0)
(0.16261 -1.1211 0)
(0.139827 -1.12737 0)
(0.117357 -1.132 0)
(0.0951137 -1.13419 0)
(0.0734921 -1.13451 0)
(-0.0551559 0.120597 0)
(-0.00848969 0.108711 0)
(0.032914 0.0959407 0)
(0.0677928 0.0818976 0)
(0.0939572 0.0665119 0)
(0.107984 0.0497573 0)
(0.107104 0.0312072 0)
(0.0943929 0.00865681 0)
(0.0825101 -0.0233279 0)
(0.0838446 -0.0718337 0)
(0.104899 -0.142674 0)
(0.145273 -0.235949 0)
(0.197907 -0.346953 0)
(0.255493 -0.468925 0)
(0.311135 -0.593632 0)
(0.358314 -0.711073 0)
(0.391922 -0.812 0)
(0.409458 -0.891143 0)
(0.411917 -0.948484 0)
(0.402582 -0.987981 0)
(0.385482 -1.01511 0)
(0.363994 -1.03481 0)
(0.34034 -1.05054 0)
(0.315793 -1.06429 0)
(0.290918 -1.07694 0)
(0.265839 -1.08863 0)
(0.240827 -1.09914 0)
(0.216118 -1.10836 0)
(0.191659 -1.11621 0)
(0.167352 -1.12234 0)
(0.143271 -1.12682 0)
(0.119676 -1.1304 0)
(0.0964174 -1.13284 0)
(0.0724947 -1.13264 0)
(-0.0451398 0.0834433 0)
(0.00262462 0.0689124 0)
(0.0449219 0.0530499 0)
(0.0808052 0.0356605 0)
(0.108017 0.0171298 0)
(0.122712 -0.0024939 0)
(0.123707 -0.0245547 0)
(0.118634 -0.0545033 0)
(0.120948 -0.100692 0)
(0.140445 -0.170547 0)
(0.18008 -0.265489 0)
(0.234764 -0.378727 0)
(0.29553 -0.501332 0)
(0.353676 -0.623816 0)
(0.401942 -0.736041 0)
(0.434876 -0.829471 0)
(0.450698 -0.900397 0)
(0.451165 -0.950275 0)
(0.440229 -0.984041 0)
(0.422096 -1.00745 0)
(0.400065 -1.02517 0)
(0.376079 -1.0401 0)
(0.350965 -1.05349 0)
(0.325238 -1.06552 0)
(0.299172 -1.07597 0)
(0.273066 -1.0838 0)
(0.24721 -1.09051 0)
(0.221606 -1.09558 0)
(0.196289 -1.09881 0)
(0.171202 -1.10053 0)
(0.146212 -1.10074 0)
(0.121615 -1.0995 0)
(0.0972055 -1.09766 0)
(0.0698685 -1.09379 0)
(-0.0333115 0.0481533 0)
(0.0160142 0.0307366 0)
(0.0597249 0.0112568 0)
(0.0968364 -0.0101958 0)
(0.124629 -0.0326907 0)
(0.140409 -0.0565152 0)
(0.146979 -0.0858949 0)
(0.154636 -0.129459 0)
(0.175092 -0.195244 0)
(0.214234 -0.286357 0)
(0.269289 -0.397726 0)
(0.331602 -0.51892 0)
(0.391537 -0.638695 0)
(0.440671 -0.746372 0)
(0.473402 -0.834091 0)
(0.488295 -0.899075 0)
(0.487712 -0.943779 0)
(0.476 -0.973701 0)
(0.457491 -0.994679 0)
(0.435229 -1.01092 0)
(0.411052 -1.02456 0)
(0.385824 -1.0361 0)
(0.359926 -1.04456 0)
(0.333377 -1.05118 0)
(0.306219 -1.05393 0)
(0.278878 -1.0523 0)
(0.251295 -1.04521 0)
(0.223333 -1.0315 0)
(0.195283 -1.01091 0)
(0.167453 -0.982909 0)
(0.140067 -0.947022 0)
(0.113268 -0.906147 0)
(0.0861633 -0.86705 0)
(0.0550723 -0.832637 0)
(0.00238853 -0.00269203 0)
(0.0026676 -0.00882931 0)
(0.000420396 -0.0112817 0)
(-0.00199263 -0.00376121 0)
(-0.00393435 0.0121142 0)
(-0.00389444 0.0317045 0)
(0.0072099 -0.00393978 0)
(0.00597285 -0.00943852 0)
(-0.00452415 -0.00259878 0)
(-0.0185513 0.0192903 0)
(-0.0277625 0.0494275 0)
(-0.028672 0.0807807 0)
(0.0112453 -0.00274979 0)
(0.00254557 -0.00214426 0)
(-0.0218393 0.0199838 0)
(-0.0460705 0.0562491 0)
(-0.0580833 0.095828 0)
(-0.0555208 0.13063 0)
(0.0112005 -0.0004963 0)
(-0.0113928 0.0103841 0)
(-0.0528871 0.0485946 0)
(-0.083726 0.0964412 0)
(-0.0923582 0.139573 0)
(-0.0815183 0.170972 0)
(0.0058199 0.00129712 0)
(-0.0404911 0.0272877 0)
(-0.0961067 0.0796302 0)
(-0.125242 0.131661 0)
(-0.123408 0.169574 0)
(-0.101061 0.191338 0)
(-0.00925014 0.00467386 0)
(-0.0838874 0.0477624 0)
(-0.144206 0.106412 0)
(-0.161775 0.152511 0)
(-0.145038 0.177792 0)
(-0.110953 0.191506 0)
(-0.033149 0.0106916 0)
(-0.135116 0.0670492 0)
(-0.187659 0.121517 0)
(-0.186391 0.153775 0)
(-0.154529 0.165096 0)
(-0.110784 0.164268 0)
(-0.0688658 0.0210377 0)
(-0.186015 0.079524 0)
(-0.219175 0.12135 0)
(-0.19756 0.138278 0)
(-0.153373 0.138309 0)
(-0.104303 0.130992 0)
(-0.116727 0.0308254 0)
(-0.227703 0.0804539 0)
(-0.236748 0.107754 0)
(-0.198818 0.112874 0)
(-0.147211 0.106471 0)
(-0.0955006 0.0961183 0)
(-0.167182 0.0337728 0)
(-0.257032 0.0706259 0)
(-0.243893 0.0867392 0)
(-0.194805 0.084546 0)
(-0.138786 0.0749823 0)
(-0.0852058 0.062887 0)
(-0.0187639 0.01359 0)
(0.0327671 -0.00723841 0)
(0.0783291 -0.0309604 0)
(0.11654 -0.0567781 0)
(0.14527 -0.0840123 0)
(0.165042 -0.115221 0)
(0.182236 -0.157531 0)
(0.207117 -0.219457 0)
(0.247369 -0.305197 0)
(0.303041 -0.411733 0)
(0.366616 -0.529201 0)
(0.427802 -0.645155 0)
(0.477447 -0.748274 0)
(0.509946 -0.830998 0)
(0.524139 -0.891227 0)
(0.52279 -0.931964 0)
(0.510579 -0.958925 0)
(0.491909 -0.97767 0)
(0.46986 -0.991761 0)
(0.445915 -1.00209 0)
(0.420396 -1.00957 0)
(0.393167 -1.01179 0)
(0.363922 -1.00661 0)
(0.332028 -0.98996 0)
(0.297818 -0.959051 0)
(0.261976 -0.912874 0)
(0.224712 -0.850173 0)
(0.186782 -0.77179 0)
(0.149299 -0.679805 0)
(0.113469 -0.576884 0)
(0.0797327 -0.465846 0)
(0.0458707 -0.350063 0)
(0.0106385 -0.239012 0)
(-0.0113272 -0.147572 0)
(-0.000751263 -0.0207688 0)
(0.0534307 -0.0457157 0)
(0.101004 -0.0739808 0)
(0.14084 -0.104754 0)
(0.172961 -0.139177 0)
(0.201275 -0.182266 0)
(0.233534 -0.241501 0)
(0.277247 -0.322081 0)
(0.334388 -0.422657 0)
(0.399359 -0.5348 0)
(0.461919 -0.646074 0)
(0.512373 -0.744721 0)
(0.544927 -0.82312 0)
(0.55873 -0.879448 0)
(0.556868 -0.916946 0)
(0.544239 -0.941202 0)
(0.525442 -0.957189 0)
(0.503157 -0.967463 0)
(0.47814 -0.972984 0)
(0.45007 -0.970244 0)
(0.417952 -0.955744 0)
(0.380832 -0.925593 0)
(0.33837 -0.876656 0)
(0.291113 -0.807526 0)
(0.240609 -0.721192 0)
(0.188619 -0.619737 0)
(0.137018 -0.508529 0)
(0.0879842 -0.394374 0)
(0.043493 -0.284928 0)
(0.00542774 -0.187908 0)
(-0.0237826 -0.108416 0)
(-0.0488976 -0.0458041 0)
(-0.0771427 0.00289711 0)
(-0.101205 0.00884502 0)
(0.0205224 -0.0547472 0)
(0.0776525 -0.0841506 0)
(0.12784 -0.117412 0)
(0.171187 -0.15486 0)
(0.210302 -0.199623 0)
(0.250962 -0.257431 0)
(0.299647 -0.333436 0)
(0.359216 -0.427881 0)
(0.425907 -0.534122 0)
(0.490464 -0.640585 0)
(0.542811 -0.735389 0)
(0.57661 -0.810614 0)
(0.5909 -0.864195 0)
(0.589075 -0.899169 0)
(0.57627 -0.920708 0)
(0.556856 -0.932707 0)
(0.533001 -0.937962 0)
(0.504788 -0.93297 0)
(0.471022 -0.914708 0)
(0.430372 -0.879023 0)
(0.382193 -0.823081 0)
(0.326936 -0.746214 0)
(0.266558 -0.65092 0)
(0.204214 -0.542659 0)
(0.143392 -0.429008 0)
(0.0875498 -0.317833 0)
(0.0400155 -0.217743 0)
(0.00297803 -0.135793 0)
(-0.0234298 -0.0745794 0)
(-0.0407472 -0.0309206 0)
(-0.052242 -0.00144262 0)
(-0.0628184 0.0176458 0)
(-0.0780703 0.0250383 0)
(-0.0775312 0.0131812 0)
(0.0454212 -0.0888584 0)
(0.106058 -0.123274 0)
(0.160282 -0.162798 0)
(0.209886 -0.209239 0)
(0.259187 -0.266554 0)
(0.313747 -0.339063 0)
(0.376712 -0.427932 0)
(0.445757 -0.528383 0)
(0.512932 -0.630252 0)
(0.568291 -0.7219 0)
(0.60477 -0.794975 0)
(0.620769 -0.846876 0)
(0.619436 -0.879924 0)
(0.60626 -0.898521 0)
(0.585393 -0.906213 0)
(0.558447 -0.903014 0)
(0.524883 -0.885902 0)
(0.483322 -0.851264 0)
(0.432793 -0.795902 0)
(0.373479 -0.719251 0)
(0.307301 -0.623951 0)
(0.237709 -0.515849 0)
(0.169237 -0.403102 0)
(0.106521 -0.294482 0)
(0.0532987 -0.197732 0)
(0.0119481 -0.118497 0)
(-0.0172882 -0.0588511 0)
(-0.0368354 -0.0156346 0)
(-0.0492734 0.0138205 0)
(-0.0562926 0.0313339 0)
(-0.060382 0.038891 0)
(-0.0646765 0.0387447 0)
(-0.0699399 0.0301781 0)
(-0.0602602 0.00976425 0)
(0.0746482 -0.123665 0)
(0.139865 -0.164016 0)
(0.200107 -0.211414 0)
(0.258455 -0.26858 0)
(0.319452 -0.338632 0)
(0.386551 -0.422842 0)
(0.45861 -0.518022 0)
(0.529047 -0.615708 0)
(0.588349 -0.704922 0)
(0.628757 -0.776776 0)
(0.647733 -0.82775 0)
(0.647877 -0.859248 0)
(0.634403 -0.874085 0)
(0.611266 -0.877767 0)
(0.579816 -0.865885 0)
(0.539656 -0.837124 0)
(0.489568 -0.787714 0)
(0.429385 -0.716695 0)
(0.360692 -0.625886 0)
(0.286797 -0.520753 0)
(0.212303 -0.409221 0)
(0.142232 -0.300177 0)
(0.0810353 -0.201535 0)
(0.031611 -0.118633 0)
(-0.00525271 -0.0537231 0)
(-0.0309804 -0.0052717 0)
(-0.0476589 0.0291697 0)
(-0.0573203 0.0513883 0)
(-0.0610237 0.0636271 0)
(-0.0607844 0.0671012 0)
(-0.0587156 0.0628073 0)
(-0.0567171 0.0526765 0)
(-0.0549272 0.0364234 0)
(-0.0418467 0.0107308 0)
(0.108737 -0.159742 0)
(0.179767 -0.207197 0)
(0.248098 -0.263684 0)
(0.316937 -0.331787 0)
(0.388808 -0.412419 0)
(0.464395 -0.503075 0)
(0.538588 -0.597044 0)
(0.602607 -0.684431 0)
(0.648163 -0.756071 0)
(0.671377 -0.80716 0)
(0.673925 -0.837986 0)
(0.660495 -0.851118 0)
(0.635065 -0.849492 0)
(0.598711 -0.829942 0)
(0.551348 -0.790806 0)
(0.492844 -0.729865 0)
(0.424035 -0.647515 0)
(0.347849 -0.548059 0)
(0.268771 -0.438639 0)
(0.191982 -0.328018 0)
(0.122295 -0.224469 0)
(0.0632832 -0.134185 0)
(0.0166811 -0.0603554 0)
(-0.0178618 -0.00320969 0)
(-0.0420593 0.0393325 0)
(-0.0571309 0.0690778 0)
(-0.0645108 0.0870274 0)
(-0.0656647 0.0957824 0)
(-0.0629623 0.0964994 0)
(-0.0566409 0.0901931 0)
(-0.0490378 0.0781371 0)
(-0.0420254 0.0617473 0)
(-0.0348304 0.0405414 0)
(-0.021671 0.0104036 0)
(0.148634 -0.19692 0)
(0.226981 -0.252888 0)
(0.304593 -0.319331 0)
(0.383447 -0.39666 0)
(0.46322 -0.483398 0)
(0.541489 -0.574228 0)
(0.610739 -0.660218 0)
(0.662533 -0.732368 0)
(0.69155 -0.784818 0)
(0.697518 -0.81624 0)
(0.684921 -0.828297 0)
(0.657324 -0.82265 0)
(0.616382 -0.7972 0)
(0.562312 -0.750129 0)
(0.495971 -0.680867 0)
(0.419601 -0.591318 0)
(0.337256 -0.487207 0)
(0.254306 -0.376678 0)
(0.176099 -0.268341 0)
(0.106955 -0.169435 0)
(0.0494987 -0.0845145 0)
(0.00452188 -0.0154304 0)
(-0.0286688 0.0380488 0)
(-0.0516076 0.0774397 0)
(-0.0657451 0.103947 0)
(-0.0714613 0.119707 0)
(-0.0705817 0.125434 0)
(-0.0656767 0.123701 0)
(-0.0569587 0.115716 0)
(-0.0460808 0.102674 0)
(-0.0346373 0.0854945 0)
(-0.0236691 0.0654472 0)
(-0.0123411 0.0417812 0)
(-0.00154836 0.00977186 0)
(0.195718 -0.235732 0)
(0.282367 -0.300694 0)
(0.368827 -0.376027 0)
(0.454883 -0.459392 0)
(0.537818 -0.547092 0)
(0.612738 -0.632057 0)
(0.671498 -0.705047 0)
(0.70743 -0.759529 0)
(0.718285 -0.793153 0)
(0.707881 -0.805847 0)
(0.679143 -0.797694 0)
(0.63429 -0.768458 0)
(0.574398 -0.716406 0)
(0.501227 -0.642049 0)
(0.418247 -0.548789 0)
(0.330533 -0.443139 0)
(0.244017 -0.333513 0)
(0.164111 -0.227996 0)
(0.0946597 -0.132725 0)
(0.0376118 -0.0510866 0)
(-0.00686861 0.0159212 0)
(-0.0392529 0.0682467 0)
(-0.0609284 0.105902 0)
(-0.0733394 0.130869 0)
(-0.0779263 0.143833 0)
(-0.0756416 0.147151 0)
(-0.0683067 0.143555 0)
(-0.0581197 0.134538 0)
(-0.0456373 0.121084 0)
(-0.0317426 0.104326 0)
(-0.0175887 0.0848376 0)
(-0.00368566 0.0635422 0)
(0.0107272 0.0394403 0)
(0.0182964 0.00852403 0)
(0.25007 -0.275881 0)
(0.3448 -0.349107 0)
(0.438094 -0.43071 0)
(0.527335 -0.51579 0)
(0.608248 -0.59934 0)
(0.674322 -0.673642 0)
(0.717773 -0.730834 0)
(0.735075 -0.767689 0)
(0.73182 -0.782797 0)
(0.70082 -0.774679 0)
(0.653694 -0.743741 0)
(0.589232 -0.689579 0)
(0.510422 -0.613226 0)
(0.421759 -0.51919 0)
(0.329179 -0.414557 0)
(0.23899 -0.307581 0)
(0.156597 -0.205675 0)
(0.0855623 -0.114003 0)
(0.0274293 -0.0350934 0)
(-0.0178643 0.0306276 0)
(-0.0506015 0.0824639 0)
(-0.0710693 0.120095 0)
(-0.0813969 0.143389 0)
(-0.0837937 0.154952 0)
(-0.0799555 0.156911 0)
(-0.0717223 0.152018 0)
(-0.0602842 0.141525 0)
(-0.046851 0.128072 0)
(-0.0319543 0.112596 0)
(-0.0161716 0.0953662 0)
(-0.000183707 0.0764303 0)
(0.0159056 0.0562343 0)
(0.0325385 0.0337233 0)
(0.0360815 0.00779907 0)
(0.310941 -0.316093 0)
(0.412256 -0.395561 0)
(0.508992 -0.479692 0)
(0.59667 -0.56214 0)
(0.670377 -0.63731 0)
(0.722688 -0.698229 0)
(0.74886 -0.739434 0)
(0.752937 -0.758494 0)
(0.724051 -0.752786 0)
(0.675062 -0.722226 0)
(0.607892 -0.668672 0)
(0.52484 -0.593087 0)
(0.431526 -0.500765 0)
(0.334601 -0.399229 0)
(0.240685 -0.296549 0)
(0.155129 -0.199504 0)
(0.0813128 -0.112477 0)
(0.0206224 -0.0373878 0)
(-0.0270924 0.0258661 0)
(-0.0612755 0.076286 0)
(-0.0823674 0.112867 0)
(-0.0913141 0.136281 0)
(-0.0906354 0.150194 0)
(-0.0854438 0.150389 0)
(-0.0754595 0.143818 0)
(-0.0626858 0.132571 0)
(-0.048888 0.119508 0)
(-0.0342756 0.106051 0)
(-0.0185644 0.0922731 0)
(-0.00179192 0.0776176 0)
(0.0155367 0.0616426 0)
(0.0333427 0.0444421 0)
(0.0514866 0.0252026 0)
(0.0519973 0.00614159 0)
(0.37677 -0.354316 0)
(0.481965 -0.437138 0)
(0.578042 -0.519957 0)
(0.659749 -0.596279 0)
(0.7225 -0.660643 0)
(0.75976 -0.707207 0)
(0.770372 -0.731375 0)
(0.746995 -0.730604 0)
(0.69972 -0.702958 0)
(0.630826 -0.651993 0)
(0.545239 -0.579698 0)
(0.448411 -0.491071 0)
(0.347812 -0.394234 0)
(0.250396 -0.297179 0)
(0.161501 -0.206325 0)
(0.0843527 -0.125536 0)
(0.0202567 -0.0563268 0)
(-0.0308899 0.00140974 0)
(-0.0685692 0.0474102 0)
(-0.0913317 0.0808169 0)
(-0.101735 0.10432 0)
(-0.101274 0.11436 0)
(-0.0930251 0.11752 0)
(-0.079657 0.113624 0)
(-0.0655846 0.105036 0)
(-0.0518853 0.0944409 0)
(-0.0383521 0.0840092 0)
(-0.024082 0.0743969 0)
(-0.00818049 0.0649909 0)
(0.00946818 0.0547102 0)
(0.0281314 0.0429412 0)
(0.0475056 0.0296181 0)
(0.0662509 0.0145289 0)
(0.0605072 0.00181847 0)
(0.445444 -0.388381 0)
(0.551246 -0.471471 0)
(0.64286 -0.549657 0)
(0.715079 -0.617227 0)
(0.763447 -0.668943 0)
(0.781533 -0.699182 0)
(0.769143 -0.706312 0)
(0.72672 -0.684384 0)
(0.658774 -0.638097 0)
(0.571786 -0.570739 0)
(0.472787 -0.487496 0)
(0.369276 -0.396377 0)
(0.268811 -0.305752 0)
(0.176871 -0.221972 0)
(0.0966067 -0.148808 0)
(0.0292417 -0.0876184 0)
(-0.0252898 -0.0383785 0)
(-0.0666616 -0.00102356 0)
(-0.0942134 0.0253342 0)
(-0.108377 0.0431355 0)
(-0.110882 0.0547979 0)
(-0.103518 0.0616173 0)
(-0.0901073 0.0638665 0)
(-0.0740999 0.0620523 0)
(-0.0585707 0.0572566 0)
(-0.0447908 0.0512672 0)
(-0.0319894 0.0457712 0)
(-0.0181747 0.0411331 0)
(-0.00187953 0.0365089 0)
(0.0169301 0.0306774 0)
(0.0371159 0.0230003 0)
(0.0579347 0.0135898 0)
(0.0760549 0.00346546 0)
(0.0630777 -0.00370072 0)
(0.514689 -0.416362 0)
(0.617407 -0.496737 0)
(0.700463 -0.567577 0)
(0.759499 -0.624523 0)
(0.790191 -0.662899 0)
(0.793065 -0.67769 0)
(0.754834 -0.665027 0)
(0.69093 -0.625178 0)
(0.604587 -0.564256 0)
(0.504455 -0.487419 0)
(0.398938 -0.402721 0)
(0.295915 -0.318683 0)
(0.201413 -0.24211 0)
(0.118702 -0.177059 0)
(0.048977 -0.125153 0)
(-0.00784409 -0.0864665 0)
(-0.052224 -0.060524 0)
(-0.0846782 -0.04451 0)
(-0.106201 -0.0337118 0)
(-0.116986 -0.0237735 0)
(-0.117169 -0.0134302 0)
(-0.107796 -0.0031904 0)
(-0.0917913 0.00545825 0)
(-0.0732205 0.0110546 0)
(-0.0561143 0.0131899 0)
(-0.0421613 0.0129386 0)
(-0.029872 0.0120594 0)
(-0.0161213 0.0114173 0)
(0.000970379 0.0105012 0)
(0.0211358 0.00808599 0)
(0.0428978 0.00366242 0)
(0.0650837 -0.00225807 0)
(0.0816225 -0.00690683 0)
(0.0597628 -0.00860235 0)
(0.582204 -0.436724 0)
(0.678344 -0.511776 0)
(0.750294 -0.573756 0)
(0.795148 -0.619036 0)
(0.808136 -0.643591 0)
(0.784513 -0.641835 0)
(0.725734 -0.611078 0)
(0.642845 -0.55812 0)
(0.543093 -0.488674 0)
(0.436294 -0.410712 0)
(0.331192 -0.333075 0)
(0.234462 -0.26308 0)
(0.149948 -0.205514 0)
(0.0789863 -0.162611 0)
(0.0213763 -0.134749 0)
(-0.0243626 -0.120961 0)
(-0.0609096 -0.116754 0)
(-0.0906992 -0.114523 0)
(-0.113246 -0.109018 0)
(-0.126138 -0.0987609 0)
(-0.12776 -0.0844609 0)
(-0.118394 -0.0675893 0)
(-0.100781 -0.0502914 0)
(-0.0795345 -0.0351499 0)
(-0.0596755 -0.0243551 0)
(-0.0439455 -0.018353 0)
(-0.0309269 -0.0154888 0)
(-0.0165978 -0.0136075 0)
(0.0015523 -0.0121189 0)
(0.0230443 -0.0121793 0)
(0.0462737 -0.0141642 0)
(0.0686091 -0.0167699 0)
(0.0797884 -0.0156753 0)
(0.0507226 -0.00926256 0)
(0.646164 -0.448568 0)
(0.732612 -0.516264 0)
(0.79028 -0.568469 0)
(0.816702 -0.602139 0)
(0.811185 -0.612356 0)
(0.763342 -0.593814 0)
(0.685387 -0.550042 0)
(0.588032 -0.489241 0)
(0.480857 -0.418401 0)
(0.373916 -0.346809 0)
(0.274998 -0.282408 0)
(0.188825 -0.230839 0)
(0.117274 -0.195254 0)
(0.0600223 -0.176505 0)
(0.0146328 -0.173098 0)
(-0.0237975 -0.179526 0)
(-0.0598207 -0.18619 0)
(-0.0931262 -0.187587 0)
(-0.120253 -0.182834 0)
(-0.137654 -0.171804 0)
(-0.142983 -0.154607 0)
(-0.135814 -0.132119 0)
(-0.118133 -0.106384 0)
(-0.0942879 -0.0807591 0)
(-0.0700605 -0.0593778 0)
(-0.050007 -0.0452103 0)
(-0.0342845 -0.0379206 0)
(-0.0187042 -0.0342044 0)
(0.00052043 -0.0313082 0)
(0.0232723 -0.0295654 0)
(0.0474069 -0.0291232 0)
(0.0678542 -0.0277102 0)
(0.0733786 -0.0210905 0)
(0.038757 -0.0077925 0)
(0.704909 -0.451751 0)
(0.779033 -0.510928 0)
(0.821783 -0.552923 0)
(0.833621 -0.574951 0)
(0.800807 -0.571152 0)
(0.731934 -0.538701 0)
(0.63845 -0.487215 0)
(0.532163 -0.424323 0)
(0.423605 -0.358543 0)
(0.322129 -0.298734 0)
(0.23379 -0.251363 0)
(0.161369 -0.220564 0)
(0.104764 -0.20791 0)
(0.0607565 -0.211639 0)
(0.0227556 -0.225381 0)
(-0.0158364 -0.239344 0)
(-0.0559374 -0.247916 0)
(-0.094139 -0.251109 0)
(-0.126662 -0.248662 0)
(-0.149903 -0.239419 0)
(-0.160992 -0.222334 0)
(-0.158565 -0.197319 0)
(-0.143365 -0.165697 0)
(-0.118466 -0.130604 0)
(-0.0892895 -0.0972374 0)
(-0.062137 -0.071455 0)
(-0.0404763 -0.0563104 0)
(-0.0220414 -0.0495092 0)
(-0.00173086 -0.0456807 0)
(0.0217586 -0.0423159 0)
(0.0454659 -0.039064 0)
(0.0628128 -0.0332715 0)
(0.0616879 -0.0217636 0)
(0.0268104 -0.00513369 0)
(0.757314 -0.446588 0)
(0.817389 -0.497298 0)
(0.843271 -0.529562 0)
(0.833811 -0.539382 0)
(0.779863 -0.521966 0)
(0.693705 -0.481238 0)
(0.589597 -0.427054 0)
(0.480035 -0.367514 0)
(0.37547 -0.311583 0)
(0.283857 -0.266815 0)
(0.209381 -0.238205 0)
(0.152482 -0.228123 0)
(0.109839 -0.235206 0)
(0.0738278 -0.252783 0)
(0.035955 -0.271202 0)
(-0.00643882 -0.284836 0)
(-0.0504118 -0.294192 0)
(-0.0927497 -0.299979 0)
(-0.130411 -0.301301 0)
(-0.160114 -0.296331 0)
(-0.178583 -0.28287 0)
(-0.1834 -0.259618 0)
(-0.173933 -0.226745 0)
(-0.151434 -0.186186 0)
(-0.119453 -0.142326 0)
(-0.0842869 -0.102452 0)
(-0.05276 -0.073751 0)
(-0.0276126 -0.0587553 0)
(-0.00522178 -0.0525525 0)
(0.0182711 -0.0478306 0)
(0.040321 -0.0419252 0)
(0.0535361 -0.0326466 0)
(0.0475762 -0.0183045 0)
(0.0170519 -0.00258506 0)
(0.803264 -0.433826 0)
(0.848489 -0.475852 0)
(0.856989 -0.498509 0)
(0.825606 -0.497664 0)
(0.751953 -0.469972 0)
(0.652696 -0.425467 0)
(0.543029 -0.372936 0)
(0.435309 -0.320956 0)
(0.339132 -0.27775 0)
(0.260627 -0.249355 0)
(0.201221 -0.239334 0)
(0.158625 -0.245985 0)
(0.125 -0.264583 0)
(0.0899764 -0.284971 0)
(0.0486727 -0.300967 0)
(0.00314198 -0.31304 0)
(-0.0432366 -0.323012 0)
(-0.0883572 -0.330974 0)
(-0.130024 -0.336152 0)
(-0.165695 -0.336765 0)
(-0.192148 -0.329833 0)
(-0.205995 -0.312557 0)
(-0.205176 -0.283613 0)
(-0.189336 -0.24376 0)
(-0.159514 -0.194971 0)
(-0.119615 -0.143237 0)
(-0.0771095 -0.0976134 0)
(-0.0399382 -0.0663816 0)
(-0.0111188 -0.0514032 0)
(0.0128904 -0.044591 0)
(0.0328184 -0.0370508 0)
(0.0425301 -0.0263993 0)
(0.0345644 -0.0125218 0)
(0.01033 -0.000697524 0)
(0.841706 -0.414908 0)
(0.870809 -0.448608 0)
(0.864179 -0.462397 0)
(0.80941 -0.451855 0)
(0.720112 -0.418552 0)
(0.612448 -0.374096 0)
(0.501874 -0.32669 0)
(0.400113 -0.284746 0)
(0.315331 -0.255086 0)
(0.25132 -0.242745 0)
(0.206539 -0.247226 0)
(0.173622 -0.26482 0)
(0.142118 -0.28572 0)
(0.103987 -0.302693 0)
(0.0595288 -0.315188 0)
(0.0123811 -0.325832 0)
(-0.0351755 -0.33569 0)
(-0.0817187 -0.344737 0)
(-0.125726 -0.352394 0)
(-0.165568 -0.357144 0)
(-0.198951 -0.357749 0)