/*--------------------------------*- C++ -*----------------------------------*\
| =========                 |                                                 |
| \\      /  F ield         | OpenFOAM: The Open Source CFD Toolbox           |
|  \\    /   O peration     | Version:  v2012                                 |
|   \\  /    A nd           | Website:  www.openfoam.com                      |
|    \\/     M anipulation  |                                                 |
\*---------------------------------------------------------------------------*/
FoamFile
{
    version     2.0;
    format      ascii;
    class       volScalarField;
    location    "622";
    object      age;
}
// * * * * * * * * * * * * * * * * * * * * * * * * * * * * * * * * * * * * * //

dimensions      [0 0 1 0 0 0 0];


internalField   nonuniform List<scalar> 
6057
(
0.489269
0.464125
0.438981
0.413837
0.388697
0.363561
0.33843
0.313306
0.288189
0.263079
0.237977
0.212883
0.187799
0.162724
0.137659
0.112604
0.0875612
0.0625297
0.0375101
0.0125019
0.487427
0.462447
0.437461
0.41247
0.387475
0.362478
0.337479
0.312479
0.287479
0.262479
0.237479
0.21248
0.18748
0.162482
0.137484
0.112487
0.0874898
0.0624935
0.0374971
0.0124996
0.486965
0.462029
0.437084
0.412133
0.387177
0.362217
0.337254
0.312287
0.287319
0.262347
0.237374
0.212398
0.18742
0.16244
0.137457
0.112471
0.087483
0.0624918
0.0374973
0.0124997
0.486794
0.461874
0.436945
0.412009
0.387068
0.362122
0.337172
0.312219
0.287263
0.262303
0.237339
0.212373
0.187403
0.162429
0.137451
0.112469
0.0874828
0.0624923
0.0374977
0.0124998
0.486742
0.461824
0.436899
0.411967
0.38703
0.362089
0.337144
0.312196
0.287244
0.262288
0.237328
0.212365
0.187398
0.162426
0.13745
0.112469
0.0874832
0.0624928
0.037498
0.0124999
0.486766
0.461842
0.436911
0.411975
0.387036
0.362093
0.337147
0.312197
0.287245
0.262288
0.237329
0.212365
0.187398
0.162426
0.13745
0.112469
0.0874832
0.0624928
0.037498
0.0124999
0.486865
0.461926
0.436981
0.412034
0.387084
0.362133
0.33718
0.312224
0.287266
0.262305
0.237341
0.212374
0.187403
0.162429
0.137451
0.112469
0.0874828
0.0624923
0.0374977
0.0124998
0.487086
0.462113
0.437142
0.412172
0.387203
0.362234
0.337265
0.312295
0.287323
0.26235
0.237376
0.212399
0.187421
0.16244
0.137457
0.112471
0.0874831
0.0624918
0.0374973
0.0124997
0.487595
0.462572
0.43754
0.412523
0.38751
0.362501
0.337494
0.312489
0.287486
0.262483
0.237482
0.212481
0.187481
0.162482
0.137484
0.112487
0.0874899
0.0624935
0.0374971
0.0124996
0.485466
0.465241
0.438857
0.413956
0.388727
0.363592
0.338448
0.313318
0.288196
0.263084
0.23798
0.212885
0.1878
0.162724
0.137659
0.112605
0.0875613
0.0625297
0.0375101
0.0125019
1.02362
0.995641
0.968333
0.94158
0.91528
0.889348
0.863713
0.83831
0.813088
0.788003
0.763015
0.738095
0.713218
0.688364
0.663518
0.638671
0.613816
0.58895
0.564074
0.539186
0.51429
1.01597
0.988438
0.961549
0.935191
0.909266
0.883689
0.85839
0.833308
0.80839
0.783593
0.75888
0.734221
0.709591
0.684972
0.66035
0.635716
0.611065
0.586395
0.561705
0.536999
0.512278
1.01254
0.9854
0.95885
0.932787
0.907117
0.881764
0.856659
0.831746
0.806976
0.782309
0.75771
0.733151
0.70861
0.684071
0.65952
0.634951
0.610359
0.585743
0.561105
0.536447
0.511772
1.01095
0.983978
0.957575
0.931639
0.906083
0.880831
0.85582
0.830994
0.806304
0.781711
0.757179
0.732681
0.708194
0.683701
0.659191
0.634656
0.610092
0.5855
0.560883
0.536243
0.511585
1.00989
0.983023
0.956717
0.930873
0.905404
0.880235
0.855301
0.830547
0.805924
0.781392
0.756916
0.732467
0.708022
0.683564
0.65908
0.634566
0.610016
0.585434
0.560822
0.536185
0.51153
1.00925
0.982482
0.956267
0.930504
0.905105
0.879998
0.855117
0.83041
0.805828
0.781333
0.756889
0.732468
0.708047
0.683606
0.659135
0.634626
0.610077
0.58549
0.56087
0.536224
0.511561
1.00941
0.982779
0.956661
0.930958
0.905588
0.880485
0.855593
0.830861
0.806249
0.781718
0.757239
0.732787
0.708338
0.683875
0.659384
0.634856
0.610286
0.585676
0.561032
0.536362
0.511678
1.01196
0.985261
0.959031
0.933185
0.907653
0.882371
0.857289
0.832358
0.807534
0.782788
0.758098
0.733444
0.708817
0.684223
0.659683
0.635139
0.610573
0.585968
0.56132
0.536633
0.511923
1.01062
0.984693
0.959558
0.935008
0.910856
0.887056
0.863381
0.839097
0.814343
0.789193
0.763844
0.738682
0.713442
0.688123
0.662792
0.637545
0.612379
0.5873
0.562301
0.537376
0.512522
1.04874
1.0342
1.02094
1.00793
0.994133
0.978604
0.960611
0.939742
0.915855
0.889069
0.859773
0.828462
0.795686
0.762027
0.728039
0.694178
0.660687
0.627705
0.595312
0.563406
0.531862
10.5797
11.0976
11.6401
12.8506
2.88637
1.903
1.69274
1.56688
1.48029
1.4121
1.35509
1.30546
1.26107
1.22059
1.18312
1.14802
1.11481
1.08314
1.05272
9.72029
11.2655
11.2508
6.95841
2.14682
1.77812
1.63313
1.53049
1.45436
1.39171
1.33814
1.29081
1.24807
1.20883
1.17234
1.13805
1.10553
1.07446
1.04458
9.32469
10.7963
7.84069
3.32347
1.89161
1.70048
1.58909
1.50264
1.43429
1.37625
1.32566
1.28042
1.23925
1.20125
1.16577
1.13231
1.1005
1.07004
1.0407
8.49278
8.05771
4.36924
2.06355
1.80014
1.65547
1.56168
1.48476
1.42146
1.36665
1.31822
1.27451
1.23447
1.19732
1.16248
1.12953
1.09813
1.06799
1.0389
7.16127
5.44681
2.6759
1.88491
1.74851
1.62886
1.54459
1.47345
1.41346
1.36084
1.31385
1.27112
1.23176
1.19508
1.16059
1.12788
1.09667
1.06668
1.03772
6.0494
3.74578
2.10431
1.83724
1.71794
1.61232
1.53358
1.46614
1.40837
1.35721
1.31114
1.26901
1.23003
1.19361
1.1593
1.12675
1.09567
1.06581
1.03697
5.25294
2.86631
1.97672
1.81352
1.69852
1.60173
1.52649
1.46161
1.40535
1.35507
1.30944
1.26752
1.22868
1.19243
1.15832
1.12601
1.09519
1.06557
1.03695
4.64426
2.43346
1.93543
1.79911
1.68586
1.59501
1.52194
1.45847
1.40269
1.35257
1.30725
1.26603
1.22816
1.19288
1.15956
1.12783
1.0974
1.06802
1.0395
4.20085
2.26186
1.91516
1.78932
1.67779
1.59079
1.51892
1.45653
1.40217
1.35436
1.31163
1.27193
1.23357
1.19621
1.16087
1.12768
1.09623
1.06634
1.03779
3.88691
2.18706
1.90515
1.78261
1.67294
1.58843
1.51775
1.45699
1.40371
1.35412
1.30451
1.25415
1.20799
1.17582
1.15162
1.12812
1.10617
1.08553
1.06574
14.8919
22.9569
32.1379
41.9334
51.7628
61.1135
69.572
76.8466
82.7727
87.3019
90.4658
92.7757
94.2885
95.1547
95.6111
95.9028
96.0865
96.2313
96.6173
96.8393
95.0459
62.6616
77.7065
90.4462
100.647
108.083
112.979
115.743
116.966
117.16
116.956
116.544
115.913
115.163
114.397
113.69
113.092
112.637
112.364
112.197
112.082
112.021
108.119
118.246
124.631
128.21
129.924
130.55
130.563
130.165
129.274
127.724
125.72
123.398
120.937
118.522
116.321
114.479
113.112
112.263
111.848
111.686
111.604
136.225
141.915
145.866
148.752
150.746
151.736
151.586
150.273
147.921
144.658
140.638
136.065
131.188
126.3
121.719
117.774
114.759
112.837
111.905
111.575
111.463
158.534
164.854
170.072
173.934
176.236
176.938
176.098
173.809
170.149
165.233
159.216
152.312
144.808
137.077
129.583
122.871
117.501
113.899
112.095
111.502
111.295
183.158
191.074
197.209
201.428
203.744
204.198
202.823
199.667
194.799
188.323
180.387
171.204
161.067
150.387
139.725
129.817
121.525
115.638
112.502
111.498
111.176
209.746
218.629
225.365
229.963
232.417
232.704
230.826
226.824
220.768
212.767
202.976
191.606
178.948
165.411
151.592
138.343
126.786
118.124
113.17
111.545
111.091
236.868
246.681
254.195
259.329
261.991
262.122
259.716
254.817
247.513
237.94
226.278
212.757
197.673
181.424
164.593
148.062
133.114
121.342
114.147
111.639
111.013
264.258
275.274
283.769
289.548
292.463
292.428
289.431
283.532
274.854
263.582
249.947
234.225
216.736
197.877
178.201
158.553
140.264
125.213
115.437
111.782
110.944
292.09
304.573
314.224
320.764
323.983
323.758
320.076
313.027
302.791
289.628
273.85
255.8
235.85
214.413
192.014
169.436
147.961
129.619
117.026
111.969
110.88
320.538
334.736
345.748
353.191
356.771
356.32
351.828
343.432
331.398
316.094
297.941
277.382
254.856
230.809
205.755
180.405
155.941
134.41
118.88
112.195
110.822
349.739
365.94
378.561
387.078
391.086
390.36
384.897
374.906
360.774
343.018
322.209
298.914
273.658
246.932
219.241
191.236
163.98
139.434
120.953
112.455
110.768
379.816
398.361
412.885
422.676
427.185
426.117
419.488
407.603
391.016
370.44
346.641
320.346
292.184
262.687
232.353
201.776
171.903
144.549
123.19
112.743
110.718
410.877
432.154
448.909
460.194
465.281
463.788
455.76
441.637
422.187
398.377
371.216
341.628
310.364
277.997
245.004
211.918
179.578
149.633
125.533
113.049
110.672
442.987
467.416
486.758
499.772
505.512
503.49
493.797
477.049
454.289
426.798
395.882
362.694
328.125
292.791
257.127
221.588
186.912
154.585
127.924
113.369
110.627
476.148
504.167
526.467
541.455
547.915
545.238
533.58
513.786
487.243
455.613
420.546
383.456
345.388
306.997
268.663
230.732
193.837
159.323
130.312
113.693
110.585
510.287
542.338
567.973
585.182
592.419
588.936
574.98
551.691
520.879
484.656
445.063
403.797
362.061
320.544
279.555
239.307
200.308
163.786
132.647
114.014
110.545
545.249
581.762
611.107
630.773
638.829
634.362
617.746
590.492
554.928
513.687
469.238
423.57
378.037
333.356
289.75
247.274
206.292
167.928
134.886
114.327
110.507
580.793
622.17
655.578
677.924
686.816
681.157
661.493
629.802
589.026
542.391
492.822
442.594
393.196
345.355
299.197
254.601
211.762
171.715
136.991
114.624
110.469
616.595
663.186
700.972
726.189
735.907
728.817
705.699
669.108
622.713
570.387
515.523
460.664
407.403
356.458
307.844
261.256
216.7
175.122
138.928
114.899
110.433
652.237
704.318
746.738
774.975
785.471
776.68
749.692
707.778
655.439
597.232
537.012
477.552
420.515
366.578
315.64
267.208
221.087
178.13
140.669
115.147
110.398
687.193
744.942
792.175
823.521
834.701
823.91
792.649
745.058
686.573
622.438
556.933
493.018
432.38
375.627
322.537
272.428
224.905
180.725
142.188
115.363
110.363
720.821
784.287
836.405
870.861
882.568
869.469
833.595
780.09
715.422
645.486
574.921
506.819
442.845
383.518
328.483
276.886
228.136
182.895
143.463
115.541
110.329
752.406
821.448
878.35
915.778
927.775
912.087
871.402
811.932
741.256
665.846
590.61
518.712
451.761
390.163
333.431
280.553
230.762
184.627
144.474
115.679
110.295
781.22
855.443
916.771
956.821
968.763
950.274
904.827
839.603
763.345
683
603.652
528.473
458.986
395.476
337.331
283.398
232.761
185.909
145.201
115.77
110.261
806.577
885.346
950.437
992.424
1003.82
982.451
932.594
862.147
781.002
696.475
613.729
535.894
464.39
399.378
340.134
285.387
234.107
186.724
145.628
115.811
110.228
827.822
910.13
977.888
1020.99
1030.89
1007.16
953.529
878.711
793.634
705.869
620.573
540.8
467.856
401.795
341.791
286.487
234.775
187.056
145.74
115.796
110.194
844.393
929.319
999.451
1040.45
1047.33
1023.26
966.711
888.635
800.789
710.875
623.977
543.049
469.29
402.659
342.254
286.66
234.735
186.88
145.534
115.705
110.161
855.89
942.153
1012.16
1046.9
1052.39
1030.16
971.579
891.511
802.19
711.298
623.802
542.541
468.616
401.91
341.474
285.867
233.954
186.176
145.008
115.506
110.127
861.961
947.956
1016.7
1048.25
1051.07
1028.02
967.95
887.215
797.747
707.068
619.987
539.22
465.779
399.499
339.407
284.068
232.395
184.911
144.146
115.204
110.093
862.495
946.683
1013.05
1044.76
1046.44
1017.48
955.967
875.806
787.525
698.225
612.546
533.076
460.754
395.388
336.007
281.213
230.01
183.047
142.926
114.798
110.058
857.509
938.401
1000.95
1032.99
1032.51
997.796
936.08
857.756
771.823
684.955
601.582
524.153
453.541
389.547
331.227
277.248
226.749
180.544
141.321
114.284
110.022
847.194
923.463
980.872
1009.64
1005.3
969.462
909.247
833.73
751.093
667.553
587.273
512.541
444.168
381.964
325.025
272.117
222.559
177.366
139.314
113.668
109.985
831.905
902.478
953.812
977.71
970.479
934.531
876.505
804.51
725.914
646.418
569.87
498.378
432.69
372.635
317.362
265.764
217.384
173.475
136.894
112.965
109.947
812.125
876.234
920.994
939.677
929.92
894.359
839.001
771.01
696.962
622.02
549.679
481.84
419.189
361.573
308.203
258.129
211.169
168.837
134.054
112.192
109.906
788.426
845.609
883.654
897.315
885.323
850.398
797.917
734.165
664.954
594.881
527.049
463.137
403.768
348.803
297.516
249.157
203.868
163.431
130.804
111.381
109.861
761.429
811.499
842.961
851.929
837.993
803.862
754.329
694.884
630.614
565.542
502.353
442.502
386.55
334.358
285.276
238.804
195.45
157.263
127.181
110.571
109.812
731.768
774.774
799.974
804.67
789.066
755.822
709.21
654.015
594.641
534.535
475.963
420.175
367.667
318.281
271.465
227.041
185.917
150.373
123.263
109.775
109.77
700.071
736.244
755.625
756.481
739.471
707.178
663.41
612.322
557.676
502.352
448.236
396.397
347.253
300.613
256.08
213.876
175.321
142.867
119.197
109.102
109.809
666.925
696.632
710.699
708.157
689.993
658.696
617.66
570.468
520.269
469.424
419.493
371.393
325.433
281.397
239.144
199.378
163.803
134.94
115.256
108.677
109.928
632.86
656.555
665.838
660.33
641.255
610.992
572.555
528.984
482.86
436.101
390.014
345.359
302.307
260.684
220.746
183.729
151.636
126.936
112.019
108.594
110.155
598.336
616.527
621.541
613.487
593.741
564.547
528.54
488.247
445.761
402.653
360.023
318.443
277.952
238.562
201.091
167.29
139.298
119.408
109.588
108.507
110.525
563.738
576.951
578.217
568.018
547.816
519.686
485.883
448.474
409.169
369.272
329.679
290.733
252.436
215.226
180.599
150.683
127.539
113.147
108.256
108.683
111.136
529.372
538.131
536.14
524.16
503.677
476.553
444.678
409.752
373.196
336.081
299.058
262.258
225.895
191.107
160.021
134.877
117.445
109.301
108.106
109.54
111.968
495.452
500.256
495.46
482.015
461.36
435.12
404.884
372.084
337.892
303.114
268.143
233.066
198.699
167.042
140.565
121.253
110.573
107.842
109.174
111.335
112.892
462.092
463.407
456.202
441.529
420.732
395.235
366.405
335.438
303.23
270.295
236.883
203.42
171.714
144.443
123.914
111.61
107.73
109.182
111.905
113.737
113.859
429.303
427.539
418.238
402.498
381.573
356.734
329.146
299.727
269.071
237.491
205.403
174.119
146.539
125.353
112.164
107.687
109.322
113.158
116.415
116.91
114.924
397.002
392.492
381.343
364.685
343.7
319.495
292.978
264.753
235.21
204.732
174.422
146.914
125.606
112.202
107.532
109.502
114.829
120.659
123.087
120.915
116.065
365.067
358.09
345.338
327.959
307.009
283.368
257.644
230.239
201.612
172.654
145.747
124.628
111.727
107.271
109.707
116.711
125.744
131.863
131.613
125.467
117.375
333.408
324.25
310.177
292.253
271.328
248.053
222.814
196.141
168.924
143.119
122.639
110.796
107.048
109.962
118.539
130.704
141.478
145.695
141.044
130.074
118.559
302.061
291.02
275.821
257.355
236.315
213.204
188.463
163.239
139.122
119.716
109.438
106.718
110.109
120.073
134.739
149.873
159.907
160.283
150.202
134.206
119.454
271.131
258.332
241.986
222.879
201.693
178.902
155.587
133.835
116.034
107.603
106.292
110.19
121.218
137.364
155.415
170.789
177.982
173.316
157.77
137.357
120.013
240.447
225.801
208.313
188.722
167.839
146.408
127.04
112.106
105.416
105.669
110.44
122.082
138.421
157.169
175.678
189.239
192.464
182.602
162.618
139.198
120.226
209.525
193.265
175.042
155.711
136.464
119.179
107.902
103.522
104.868
111.16
123.06
138.067
155.181
173.506
190.778
201.432
201.538
186.674
163.852
139.202
120.307
178.591
161.665
143.394
126.165
111.567
103.721
102.142
104.653
112.483
124.146
136.654
149.95
165.641
182.324
196.903
205.127
198.671
183.682
161.027
137.174
120.384
149.572
132.64
115.885
104.951
100.336
101.172
105.737
114.976
125.807
134.403
142.905
154.052
167.76
180.914
190.416
193.446
187.909
174.073
154.072
133.375
120.463
124.347
108.052
99.0211
98.3012
101.525
109.1
118.901
127.405
131.71
134.987
141.95
150.68
160.011
168.577
174.325
175.26
170.22
159.142
143.845
128.647
120.548
102.911
94.227
96.8598
105.619
115.67
124.508
127.289
127.411
128.925
131.755
135.563
140.375
145.492
149.972
152.711
152.654
149.12
142.096
132.897
124.394
120.648
87.1853
97.3107
111.009
124.357
126.064
125.428
125.199
125.212
125.492
126.189
127.364
128.922
130.638
132.143
132.991
132.776
131.222
128.364
124.801
121.814
120.772
82.2114
125.298
125.009
124.57
124.411
124.159
123.934
123.732
123.548
123.391
123.255
123.137
123.029
122.929
122.83
122.725
122.521
122.16
121.728
121.454
121.469
3.66994
2.14764
1.90098
1.77832
1.67057
1.58794
1.51847
1.45807
1.40214
1.3477
1.29944
1.27291
1.27808
1.36452
1.60017
2.11597
3.15513
5.16125
8.83802
3.52111
2.12568
1.90019
1.77623
1.67044
1.58941
1.52044
1.45786
1.3972
1.34394
1.32146
1.38199
1.6584
2.35692
4.14025
8.5871
17.3697
30.2171
46.0579
3.41841
2.11394
1.90166
1.77631
1.67247
1.59226
1.52105
1.45181
1.38718
1.35628
1.42951
1.77774
2.97883
7.12743
16.8302
32.9018
53.3027
74.3186
93.3631
3.34495
2.10844
1.90481
1.77843
1.67624
1.59517
1.51886
1.44473
1.39345
1.39397
1.55206
3.1772
9.32572
23.2051
44.5573
69.77
93.9795
113.502
127.352
3.29074
2.10711
1.9094
1.78241
1.6811
1.59678
1.51349
1.43969
1.41616
1.52747
2.57623
9.30554
25.055
49.6841
78.6358
105.58
126.479
140.942
150.943
3.25009
2.10878
1.91533
1.78796
1.68624
1.59685
1.50937
1.44888
1.45421
1.62526
6.74054
22.2521
48.0623
79.9238
110.267
133.914
150.629
163.109
173.742
3.21957
2.11278
1.92251
1.79473
1.69125
1.59613
1.50832
1.47044
1.55306
3.47275
15.8243
40.5763
73.9749
108.149
135.949
156.144
171.812
185.792
198.67
3.19692
2.11867
1.93084
1.80237
1.69576
1.59544
1.51581
1.49813
1.62239
7.94937
28.9558
61.5846
98.9241
131.927
156.763
176.073
193.493
209.935
224.617
3.18055
2.12614
1.9402
1.81063
1.70014
1.5964
1.52758
1.56528
2.69236
15.5985
44.5657
82.7142
120.903
151.621
175.219
196.053
216.097
234.583
250.713
3.16932
2.13496
1.95046
1.8193
1.70477
1.60165
1.55253
1.61778
5.24883
25.6153
61.0413
102.306
139.615
168.71
193.1
216.536
238.945
259.154
276.908
3.16234
2.14495
1.96152
1.82847
1.7105
1.6101
1.57759
1.66585
9.35984
36.8833
77.147
119.677
155.686
184.53
211.041
237.138
261.572
283.629
303.39
3.15894
2.15597
1.97329
1.83793
1.71644
1.62539
1.62018
2.03927
14.9412
48.5341
92.1398
134.829
169.952
199.834
228.979
257.462
283.898
308.162
330.311
3.15857
2.16789
1.98567
1.84792
1.72458
1.64101
1.65884
3.05724
21.5785
59.9388
105.7
148.089
183.084
214.864
246.655
277.34
306.006
332.872
357.763
3.16076
2.1806
1.99862
1.85856
1.7349
1.66133
1.69034
4.66377
28.5862
70.7146
117.792
159.861
195.483
229.589
263.861
296.754
327.981
357.813
385.806
3.16514
2.19402
2.0121
1.86996
1.74718
1.68374
1.72084
6.76163
35.5828
80.6588
128.521
170.489
207.329
243.884
280.49
315.738
349.855
382.988
414.467
3.17144
2.20808
2.02608
1.88217
1.76108
1.70672
1.75146
9.23413
42.3291
89.6921
138.044
180.214
218.663
257.628
296.499
334.307
371.608
408.365
443.73
3.1794
2.22269
2.04055
1.8952
1.77636
1.73014
1.78214
11.9634
48.6769
97.8164
146.524
189.192
229.459
270.735
311.873
352.448
393.184
433.874
473.524
3.18882
2.23782
2.05549
1.90908
1.79257
1.75273
1.81232
14.8297
54.5419
105.076
154.105
197.515
239.678
283.152
326.595
370.113
414.496
459.404
503.714
3.19953
2.25341
2.07088
1.9235
1.80991
1.77912
1.95414
17.7752
59.8861
111.537
160.905
205.235
249.285
294.85
340.644
387.235
435.428
484.8
534.1
3.21136
2.26942
2.08668
1.93836
1.82976
1.80905
2.18963
20.6076
64.7019
117.266
167.013
212.375
258.25
305.809
353.983
403.726
455.842
509.866
564.419
3.22421
2.28582
2.10288
1.95389
1.84887
1.83543
2.48719
23.2368
68.998
122.327
172.495
218.945
266.551
316.011
366.565
419.483
475.574
534.359
594.341
3.23795
2.30257
2.11946
1.9701
1.86794
1.85975
2.8194
25.6261
72.7933
126.774
177.397
224.943
274.17
325.432
378.322
434.371
494.408
557.97
623.449
3.2525
2.31965
2.13641
1.98691
1.88721
1.8833
3.16323
27.7593
76.1111
130.656
181.752
230.367
281.089
334.04
389.173
448.239
512.105
580.338
651.241
3.26777
2.33704
2.15372
2.00427
1.9067
1.90648
3.49984
29.6298
78.9753
134.012
185.585
235.213
287.293
341.807
399.047
460.951
528.434
601.105
677.195
3.28371
2.35471
2.17136
2.0221
1.92639
1.92941
3.81422
31.2369
81.4095
136.876
188.914
239.478
292.775
348.709
407.881
472.383
543.183
619.931
700.799
3.30024
2.37265
2.18931
2.04035
1.94625
1.95215
4.0948
32.5834
83.4352
139.276
191.755
243.163
297.53
354.726
415.619
482.425
556.157
636.498
721.569
3.31734
2.39085
2.20757
2.05899
1.96627
1.97474
4.33304
33.6742
85.0722
141.236
194.12
246.27
301.56
359.845
422.217
490.983
567.187
650.529
739.078
3.33496
2.4093
2.22612
2.07798
1.98636
1.9972
4.52303
34.5158
86.338
142.776
196.021
248.804
304.864
364.054
427.637
497.981
576.136
661.793
752.948
3.35309
2.42798
2.24494
2.09728
2.0069
2.01956
4.66113
35.1151
87.2483
143.912
197.466
250.769
307.447
367.347
431.855
503.362
582.898
670.11
762.895
3.37171
2.4469
2.26403
2.11689
2.02767
2.04182
4.7458
35.4794
87.816
144.658
198.465
252.173
309.314
369.724
434.855
507.089
587.403
675.358
768.717
3.39074
2.46606
2.2834
2.13679
2.04855
2.064
4.77628
35.6175
88.0557
145.026
199.026
253.022
310.472
371.186
436.632
509.144
589.61
677.466
770.33
3.41023
2.4854
2.30302
2.15697
2.06954
2.08602
4.78288
35.5259
87.9641
145.018
199.158
253.323
310.931
371.741
437.187
509.526
589.521
676.449
767.738
3.42974
2.50539
2.32282
2.17741
2.09067
2.10789
4.76915
35.2123
87.5484
144.633
198.864
253.088
310.693
371.394
436.536
508.255
587.168
672.357
761.039
3.44928
2.5261
2.34278
2.1981
2.11193
2.1296
4.73675
34.6871
86.816
143.875
198.149
252.327
309.767
370.157
434.7
505.369
582.611
665.298
750.431
3.46885
2.54749
2.3629
2.21905
2.13334
2.15119
4.68735
33.9624
85.7736
142.748
197.018
251.047
308.162
368.046
431.709
500.917
575.941
655.433
736.195
3.48846
2.56956
2.38318
2.24026
2.1549
2.17266
4.62276
33.0518
84.4274
141.255
195.471
249.254
305.889
365.076
427.595
494.965
567.275
642.966
718.683
3.50812
2.59229
2.40365
2.26172
2.17663
2.19403
4.54493
31.9704
82.7836
139.397
193.511
246.955
302.962
361.269
422.399
487.591
556.751
628.137
698.291
3.52785
2.61569
2.4243
2.28343
2.19852
2.21532
4.45586
30.7345
80.8485
137.175
191.137
244.157
299.392
356.644
416.164
478.883
544.528
611.211
675.444
3.54765
2.63977
2.44515
2.3054
2.22061
2.23654
4.35766
29.3617
78.6297
134.59
188.348
240.866
295.194
351.224
408.938
468.938
530.775
592.472
650.581
3.56753
2.66453
2.4662
2.32762
2.24289
2.25771
4.25243
27.8711
76.1363
131.641
185.142
237.087
290.386
345.034
400.77
457.854
515.672
572.207
624.134
3.58751
2.68998
2.48748
2.3501
2.26539
2.27885
4.14228
26.283
73.3799
128.329
181.517
232.826
284.982
338.101
391.71
445.732
499.395
550.696
596.508
3.6076
2.71613
2.50899
2.37284
2.28812
2.29998
4.02927
24.619
70.3749
124.654
177.469
228.088
279.003
330.454
381.807
432.668
482.117
528.205
568.071
3.62779
2.74298
2.53075
2.39583
2.3111
2.32112
3.91538
22.9015
67.1393
120.622
172.996
222.876
272.466
322.124
371.111
418.752
463.99
504.97
539.144
3.64811
2.77053
2.55277
2.41908
2.33434
2.34229
3.80248
21.1538
63.6954
116.237
168.094
217.195
265.389
313.142
359.668
404.061
445.147
481.19
509.992
3.66857
2.79879
2.57506
2.44258
2.35786
2.36352
3.6923
19.3998
60.0705
111.513
162.763
211.045
257.793
303.545
347.525
388.661
425.693
457.022
480.813
3.68917
2.82776
2.59764
2.46634
2.38167
2.38484
3.58641
17.663
56.2958
106.464
157.005
204.429
249.696
293.368
334.729
372.609
405.704
432.57
451.73
3.70993
2.85742
2.62052
2.49034
2.40579
2.40628
3.48617
15.967
52.4135
101.116
150.827
197.35
241.114
282.652
321.329
355.955
385.233
407.89
422.79
3.73085
2.88776
2.64371
2.5146
2.43023
2.42786
3.39274
14.3327
48.4446
95.5
144.242
189.813
232.065
271.435
307.378
338.752
364.322
383
393.973
3.75194
2.91877
2.66722
2.53909
2.45501
2.44961
3.307
12.8022
44.4176
89.6551
137.273
181.827
222.567
259.758
292.937
321.062
343.014
357.907
365.229
3.77322
2.95042
2.69106
2.56381
2.48011
2.47157
3.22963
11.4104
40.3912
83.6296
129.957
173.412
212.638
247.662
278.074
302.965
321.374
332.638
336.52
3.79468
2.98261
2.71521
2.58877
2.50555
2.49377
3.16109
10.1672
36.4333
77.4853
122.343
164.6
202.305
235.191
262.863
284.553
299.492
307.259
307.87
3.81634
3.01558
2.73977
2.61393
2.53133
2.51623
3.10158
9.07238
32.6123
71.298
114.5
155.442
191.604
222.391
247.378
265.928
277.481
281.862
279.389
3.8382
3.0491
2.76482
2.63931
2.55743
2.53898
3.05111
8.1205
28.9914
65.1556
106.515
146.011
180.596
209.322
231.693
247.182
255.444
256.547
251.153
3.86027
3.08292
2.79035
2.66488
2.58384
2.56203
3.0095
7.30309
25.6251
59.1549
98.4979
136.409
169.365
196.061
215.889
228.404
233.447
231.397
222.911
3.88254
3.11689
2.81636
2.69065
2.61054
2.5854
2.9764
6.6096
22.556
53.3954
90.5745
126.769
158.037
182.721
200.069
209.663
211.605
206.175
194.159
3.90503
3.1509
2.84281
2.7166
2.6375
2.6091
2.95134
6.02826
19.812
47.9726
82.8851
117.254
146.78
169.462
184.385
191.104
189.949
180.485
165.652
3.92771
3.18483
2.86965
2.74273
2.66469
2.63313
2.93371
5.54665
17.4061
42.9694
75.5733
108.048
135.803
156.514
169.038
173.094
168.243
155.499
140.222
3.9506
3.21857
2.89682
2.769
2.69208
2.65747
2.92286
5.15234
15.3367
38.4511
68.7759
99.3497
125.355
144.169
154.468
155.641
147.625
134.776
119.659
3.97365
3.25202
2.92427
2.79542
2.71964
2.68212
2.91809
4.83344
13.5877
34.4541
62.6022
91.3399
115.692
132.741
141.331
139.117
132.12
120.077
102.193
3.99728
3.28505
2.9519
2.82195
2.74733
2.7071
2.91882
4.57846
12.1424
31.0113
57.1612
84.2115
107.1
122.677
129.775
126.486
124.604
108.497
87.6468
4.01592
3.31415
2.97666
2.84568
2.77211
2.72931
2.92279
4.40041
11.0619
28.3508
52.8894
78.5935
100.377
115.073
120.202
121.989
122.678
99.1254
81.3173
4.03436
3.33943
2.99846
2.8666
2.79393
2.75005
2.92927
4.27018
10.2749
26.3562
49.6493
74.3405
95.3618
109.809
112.777
125.166
122.065
93.6763
79.9161
4.05262
3.3644
3.02028
2.88755
2.81577
2.77077
2.93804
4.1641
9.61674
24.6505
46.8611
70.7097
91.1853
105.644
108.897
132.339
122.014
94.8625
79.7616
79.7042
79.1412
78.8291
78.6838
78.5773
78.4838
78.389
78.2862
78.1726
78.0481
77.9149
77.7777
77.6444
77.5259
77.4163
77.2877
77.1559
78.0522
80.9974
93.231
143.563
97.4921
95.3378
93.9105
93.4232
93.0597
92.7277
92.2759
91.6444
90.7945
89.7107
88.3913
86.8489
85.1154
83.2665
81.4058
79.6258
78.0065
76.7494
76.3513
76.512
78.4144
131.034
128.492
127.228
126.786
126.431
125.901
124.959
123.475
121.372
118.609
115.176
111.09
106.397
101.18
95.5858
89.8637
84.4239
79.8554
76.8123
75.6826
75.4522
170.249
170.06
170.431
170.935
171.086
170.613
169.25
166.83
163.25
158.458
152.441
145.224
136.87
127.498
117.309
106.651
96.1199
86.6594
79.5492
76.0088
75.1352
211.586
215.368
218.535
220.854
222.064
221.967
220.329
216.982
211.826
204.818
195.967
185.326
172.999
159.147
144.023
128.036
111.879
96.7061
84.2977
76.9394
74.9992
253.753
262.351
269.096
273.89
276.653
277.259
275.505
271.249
264.415
254.995
243.043
228.678
212.078
193.492
173.253
151.836
129.986
108.953
90.8159
78.6351
74.8851
296.214
310.109
320.986
328.788
333.551
335.164
333.46
328.336
319.75
307.742
292.433
274.027
252.816
229.177
203.579
176.609
149.069
122.231
98.3199
81.0015
74.7887
338.549
358.001
373.378
384.601
391.719
394.607
393.12
387.194
376.827
362.119
343.268
320.578
294.469
265.476
234.25
201.551
168.302
135.788
106.232
83.7621
74.7042
380.398
405.506
425.606
440.557
450.313
454.703
453.585
446.921
434.763
417.28
394.763
367.631
336.438
301.882
264.812
226.212
187.2
149.145
114.216
86.7275
74.6279
421.444
452.236
477.224
496.15
508.792
514.889
514.269
506.906
492.917
472.565
446.264
414.571
378.183
337.957
294.931
250.323
205.505
162.015
121.998
89.7672
74.5578
461.434
497.934
527.981
551.126
566.91
574.923
574.918
566.862
550.947
527.57
497.317
460.923
419.254
373.32
324.324
273.695
223.078
174.26
129.432
92.7866
74.4922
500.191
542.446
577.76
605.402
624.621
634.785
635.509
626.732
608.74
582.107
547.658
506.37
459.316
407.666
352.755
296.18
239.838
185.817
136.438
95.7243
74.4303
537.588
585.682
626.504
658.969
681.964
694.547
696.122
686.576
666.302
636.116
597.156
550.719
498.142
440.768
380.038
317.66
255.735
196.664
142.983
98.5412
74.3713
573.532
627.57
674.167
711.821
738.974
754.273
756.837
746.46
723.667
689.579
645.739
593.852
535.58
472.466
406.035
338.044
270.735
206.801
149.058
101.213
74.3145
607.935
668.029
720.673
763.9
795.621
813.963
817.666
806.391
780.82
742.452
693.338
635.68
571.528
502.652
430.648
357.268
284.816
216.238
154.668
103.727
74.2595
640.697
706.943
765.89
815.073
851.781
873.512
878.521
866.283
837.663
794.629
739.848
676.107
605.902
531.25
453.812
375.287
297.966
224.989
159.826
106.076
74.2061
671.69
744.149
809.617
865.11
907.224
932.703
939.198
925.935
893.994
845.917
785.102
715.009
638.614
558.2
475.481
392.069
310.177
233.069
164.549
108.256
74.154
700.753
779.431
851.576
913.688
961.602
991.193
999.368
985.024
949.498
896.025
828.867
752.221
669.567
583.448
495.626
407.6
321.45
240.494
168.853
110.267
74.1031
727.693
812.523
891.416
960.379
1014.45
1048.51
1058.58
1043.11
1003.74
944.568
870.835
787.533
698.639
606.934
514.221
421.871
331.788
247.282
172.758
112.111
74.0531
752.28
843.107
928.713
1004.66
1065.18
1104.06
1116.24
1099.61
1056.18
991.066
910.637
820.695
725.688
628.594
531.245
434.882
341.2
253.451
176.282
113.79
74.0039
774.264
870.821
962.976
1045.91
1113.08
1157.11
1171.64
1153.84
1106.15
1034.95
947.846
851.426
750.552
648.357
546.683
446.64
349.702
259.019
179.444
115.31
73.9554
793.383
895.275
993.659
1083.42
1157.32
1206.79
1223.93
1204.97
1152.87
1075.6
982.02
879.447
773.087
666.173
560.541
457.173
357.321
264.009
182.264
116.674
73.9076
809.383
916.071
1020.18
1116.4
1196.95
1252.04
1272.08
1252.03
1195.49
1112.36
1012.74
904.545
793.223
682.058
572.866
466.528
364.092
268.446
184.758
117.889
73.8603
822.03
932.841
1041.98
1144.05
1230.89
1291.64
1314.8
1293.85
1233.11
1144.63
1039.68
926.565
810.918
696.035
583.713
474.757
370.049
272.351
186.944
118.959
73.8136
831.14
945.29
1058.59
1165.69
1258.24
1324.4
1350.45
1329.04
1264.94
1171.92
1062.54
945.352
826.098
708.085
593.095
481.888
375.217
275.742
188.834
119.887
73.7673
836.59
953.225
1069.71
1180.83
1278.12
1348.18
1374.93
1355.63
1290.26
1193.82
1081.05
960.724
838.656
718.158
601.004
487.931
379.608
278.628
190.437
120.676
73.7214
838.319
956.556
1075.18
1189.14
1289.93
1362.49
1389.63
1373.2
1308.32
1209.85
1094.9
972.468
848.459
726.181
607.409
492.88
383.227
281.013
191.758
121.327
73.6758
836.318
955.262
1074.91
1190.39
1293.27
1368.44
1401.62
1382.44
1318.45
1219.55
1103.76
980.37
855.362