/*--------------------------------*- C++ -*----------------------------------*\
| =========                 |                                                 |
| \\      /  F ield         | OpenFOAM: The Open Source CFD Toolbox           |
|  \\    /   O peration     | Version:  v2012                                 |
|   \\  /    A nd           | Website:  www.openfoam.com                      |
|    \\/     M anipulation  |                                                 |
\*---------------------------------------------------------------------------*/
FoamFile
{
    version     2.0;
    format      ascii;
    class       volVectorField;
    location    "622";
    object      C;
}
// * * * * * * * * * * * * * * * * * * * * * * * * * * * * * * * * * * * * * //

dimensions      [0 1 0 0 0 0 0];


internalField   nonuniform List<vector> 
6057
(
(0.01 1.0125 -0.005)
(0.01 1.0375 -0.005)
(0.01 1.0625 -0.005)
(0.01 1.0875 -0.005)
(0.01 1.1125 -0.005)
(0.01 1.1375 -0.005)
(0.01 1.1625 -0.005)
(0.01 1.1875 -0.005)
(0.01 1.2125 -0.005)
(0.01 1.2375 -0.005)
(0.01 1.2625 -0.005)
(0.01 1.2875 -0.005)
(0.01 1.3125 -0.005)
(0.01 1.3375 -0.005)
(0.01 1.3625 -0.005)
(0.01 1.3875 -0.005)
(0.01 1.4125 -0.005)
(0.01 1.4375 -0.005)
(0.01 1.4625 -0.005)
(0.01 1.4875 -0.005)
(0.03 1.0125 -0.005)
(0.03 1.0375 -0.005)
(0.03 1.0625 -0.005)
(0.03 1.0875 -0.005)
(0.03 1.1125 -0.005)
(0.03 1.1375 -0.005)
(0.03 1.1625 -0.005)
(0.03 1.1875 -0.005)
(0.03 1.2125 -0.005)
(0.03 1.2375 -0.005)
(0.03 1.2625 -0.005)
(0.03 1.2875 -0.005)
(0.03 1.3125 -0.005)
(0.03 1.3375 -0.005)
(0.03 1.3625 -0.005)
(0.03 1.3875 -0.005)
(0.03 1.4125 -0.005)
(0.03 1.4375 -0.005)
(0.03 1.4625 -0.005)
(0.03 1.4875 -0.005)
(0.05 1.0125 -0.005)
(0.05 1.0375 -0.005)
(0.05 1.0625 -0.005)
(0.05 1.0875 -0.005)
(0.05 1.1125 -0.005)
(0.05 1.1375 -0.005)
(0.05 1.1625 -0.005)
(0.05 1.1875 -0.005)
(0.05 1.2125 -0.005)
(0.05 1.2375 -0.005)
(0.05 1.2625 -0.005)
(0.05 1.2875 -0.005)
(0.05 1.3125 -0.005)
(0.05 1.3375 -0.005)
(0.05 1.3625 -0.005)
(0.05 1.3875 -0.005)
(0.05 1.4125 -0.005)
(0.05 1.4375 -0.005)
(0.05 1.4625 -0.005)
(0.05 1.4875 -0.005)
(0.07 1.0125 -0.005)
(0.07 1.0375 -0.005)
(0.07 1.0625 -0.005)
(0.07 1.0875 -0.005)
(0.07 1.1125 -0.005)
(0.07 1.1375 -0.005)
(0.07 1.1625 -0.005)
(0.07 1.1875 -0.005)
(0.07 1.2125 -0.005)
(0.07 1.2375 -0.005)
(0.07 1.2625 -0.005)
(0.07 1.2875 -0.005)
(0.07 1.3125 -0.005)
(0.07 1.3375 -0.005)
(0.07 1.3625 -0.005)
(0.07 1.3875 -0.005)
(0.07 1.4125 -0.005)
(0.07 1.4375 -0.005)
(0.07 1.4625 -0.005)
(0.07 1.4875 -0.005)
(0.09 1.0125 -0.005)
(0.09 1.0375 -0.005)
(0.09 1.0625 -0.005)
(0.09 1.0875 -0.005)
(0.09 1.1125 -0.005)
(0.09 1.1375 -0.005)
(0.09 1.1625 -0.005)
(0.09 1.1875 -0.005)
(0.09 1.2125 -0.005)
(0.09 1.2375 -0.005)
(0.09 1.2625 -0.005)
(0.09 1.2875 -0.005)
(0.09 1.3125 -0.005)
(0.09 1.3375 -0.005)
(0.09 1.3625 -0.005)
(0.09 1.3875 -0.005)
(0.09 1.4125 -0.005)
(0.09 1.4375 -0.005)
(0.09 1.4625 -0.005)
(0.09 1.4875 -0.005)
(0.11 1.0125 -0.005)
(0.11 1.0375 -0.005)
(0.11 1.0625 -0.005)
(0.11 1.0875 -0.005)
(0.11 1.1125 -0.005)
(0.11 1.1375 -0.005)
(0.11 1.1625 -0.005)
(0.11 1.1875 -0.005)
(0.11 1.2125 -0.005)
(0.11 1.2375 -0.005)
(0.11 1.2625 -0.005)
(0.11 1.2875 -0.005)
(0.11 1.3125 -0.005)
(0.11 1.3375 -0.005)
(0.11 1.3625 -0.005)
(0.11 1.3875 -0.005)
(0.11 1.4125 -0.005)
(0.11 1.4375 -0.005)
(0.11 1.4625 -0.005)
(0.11 1.4875 -0.005)
(0.13 1.0125 -0.005)
(0.13 1.0375 -0.005)
(0.13 1.0625 -0.005)
(0.13 1.0875 -0.005)
(0.13 1.1125 -0.005)
(0.13 1.1375 -0.005)
(0.13 1.1625 -0.005)
(0.13 1.1875 -0.005)
(0.13 1.2125 -0.005)
(0.13 1.2375 -0.005)
(0.13 1.2625 -0.005)
(0.13 1.2875 -0.005)
(0.13 1.3125 -0.005)
(0.13 1.3375 -0.005)
(0.13 1.3625 -0.005)
(0.13 1.3875 -0.005)
(0.13 1.4125 -0.005)
(0.13 1.4375 -0.005)
(0.13 1.4625 -0.005)
(0.13 1.4875 -0.005)
(0.15 1.0125 -0.005)
(0.15 1.0375 -0.005)
(0.15 1.0625 -0.005)
(0.15 1.0875 -0.005)
(0.15 1.1125 -0.005)
(0.15 1.1375 -0.005)
(0.15 1.1625 -0.005)
(0.15 1.1875 -0.005)
(0.15 1.2125 -0.005)
(0.15 1.2375 -0.005)
(0.15 1.2625 -0.005)
(0.15 1.2875 -0.005)
(0.15 1.3125 -0.005)
(0.15 1.3375 -0.005)
(0.15 1.3625 -0.005)
(0.15 1.3875 -0.005)
(0.15 1.4125 -0.005)
(0.15 1.4375 -0.005)
(0.15 1.4625 -0.005)
(0.15 1.4875 -0.005)
(0.17 1.0125 -0.005)
(0.17 1.0375 -0.005)
(0.17 1.0625 -0.005)
(0.17 1.0875 -0.005)
(0.17 1.1125 -0.005)
(0.17 1.1375 -0.005)
(0.17 1.1625 -0.005)
(0.17 1.1875 -0.005)
(0.17 1.2125 -0.005)
(0.17 1.2375 -0.005)
(0.17 1.2625 -0.005)
(0.17 1.2875 -0.005)
(0.17 1.3125 -0.005)
(0.17 1.3375 -0.005)
(0.17 1.3625 -0.005)
(0.17 1.3875 -0.005)
(0.17 1.4125 -0.005)
(0.17 1.4375 -0.005)
(0.17 1.4625 -0.005)
(0.17 1.4875 -0.005)
(0.19 1.0125 -0.005)
(0.19 1.0375 -0.005)
(0.19 1.0625 -0.005)
(0.19 1.0875 -0.005)
(0.19 1.1125 -0.005)
(0.19 1.1375 -0.005)
(0.19 1.1625 -0.005)
(0.19 1.1875 -0.005)
(0.19 1.2125 -0.005)
(0.19 1.2375 -0.005)
(0.19 1.2625 -0.005)
(0.19 1.2875 -0.005)
(0.19 1.3125 -0.005)
(0.19 1.3375 -0.005)
(0.19 1.3625 -0.005)
(0.19 1.3875 -0.005)
(0.19 1.4125 -0.005)
(0.19 1.4375 -0.005)
(0.19 1.4625 -0.005)
(0.19 1.4875 -0.005)
(0.01 0.492381 -0.005)
(0.01 0.517143 -0.005)
(0.01 0.541905 -0.005)
(0.01 0.566667 -0.005)
(0.01 0.591429 -0.005)
(0.01 0.61619 -0.005)
(0.01 0.640952 -0.005)
(0.01 0.665714 -0.005)
(0.01 0.690476 -0.005)
(0.01 0.715238 -0.005)
(0.01 0.74 -0.005)
(0.01 0.764762 -0.005)
(0.01 0.789524 -0.005)
(0.01 0.814286 -0.005)
(0.01 0.839048 -0.005)
(0.01 0.86381 -0.005)
(0.01 0.888571 -0.005)
(0.01 0.913333 -0.005)
(0.01 0.938095 -0.005)
(0.01 0.962857 -0.005)
(0.01 0.987619 -0.005)
(0.03 0.492381 -0.005)
(0.03 0.517143 -0.005)
(0.03 0.541905 -0.005)
(0.03 0.566667 -0.005)
(0.03 0.591429 -0.005)
(0.03 0.61619 -0.005)
(0.03 0.640952 -0.005)
(0.03 0.665714 -0.005)
(0.03 0.690476 -0.005)
(0.03 0.715238 -0.005)
(0.03 0.74 -0.005)
(0.03 0.764762 -0.005)
(0.03 0.789524 -0.005)
(0.03 0.814286 -0.005)
(0.03 0.839048 -0.005)
(0.03 0.86381 -0.005)
(0.03 0.888571 -0.005)
(0.03 0.913333 -0.005)
(0.03 0.938095 -0.005)
(0.03 0.962857 -0.005)
(0.03 0.987619 -0.005)
(0.05 0.492381 -0.005)
(0.05 0.517143 -0.005)
(0.05 0.541905 -0.005)
(0.05 0.566667 -0.005)
(0.05 0.591429 -0.005)
(0.05 0.61619 -0.005)
(0.05 0.640952 -0.005)
(0.05 0.665714 -0.005)
(0.05 0.690476 -0.005)
(0.05 0.715238 -0.005)
(0.05 0.74 -0.005)
(0.05 0.764762 -0.005)
(0.05 0.789524 -0.005)
(0.05 0.814286 -0.005)
(0.05 0.839048 -0.005)
(0.05 0.86381 -0.005)
(0.05 0.888571 -0.005)
(0.05 0.913333 -0.005)
(0.05 0.938095 -0.005)
(0.05 0.962857 -0.005)
(0.05 0.987619 -0.005)
(0.07 0.492381 -0.005)
(0.07 0.517143 -0.005)
(0.07 0.541905 -0.005)
(0.07 0.566667 -0.005)
(0.07 0.591429 -0.005)
(0.07 0.61619 -0.005)
(0.07 0.640952 -0.005)
(0.07 0.665714 -0.005)
(0.07 0.690476 -0.005)
(0.07 0.715238 -0.005)
(0.07 0.74 -0.005)
(0.07 0.764762 -0.005)
(0.07 0.789524 -0.005)
(0.07 0.814286 -0.005)
(0.07 0.839048 -0.005)
(0.07 0.86381 -0.005)
(0.07 0.888571 -0.005)
(0.07 0.913333 -0.005)
(0.07 0.938095 -0.005)
(0.07 0.962857 -0.005)
(0.07 0.987619 -0.005)
(0.09 0.492381 -0.005)
(0.09 0.517143 -0.005)
(0.09 0.541905 -0.005)
(0.09 0.566667 -0.005)
(0.09 0.591429 -0.005)
(0.09 0.61619 -0.005)
(0.09 0.640952 -0.005)
(0.09 0.665714 -0.005)
(0.09 0.690476 -0.005)
(0.09 0.715238 -0.005)
(0.09 0.74 -0.005)
(0.09 0.764762 -0.005)
(0.09 0.789524 -0.005)
(0.09 0.814286 -0.005)
(0.09 0.839048 -0.005)
(0.09 0.86381 -0.005)
(0.09 0.888571 -0.005)
(0.09 0.913333 -0.005)
(0.09 0.938095 -0.005)
(0.09 0.962857 -0.005)
(0.09 0.987619 -0.005)
(0.11 0.492381 -0.005)
(0.11 0.517143 -0.005)
(0.11 0.541905 -0.005)
(0.11 0.566667 -0.005)
(0.11 0.591429 -0.005)
(0.11 0.61619 -0.005)
(0.11 0.640952 -0.005)
(0.11 0.665714 -0.005)
(0.11 0.690476 -0.005)
(0.11 0.715238 -0.005)
(0.11 0.74 -0.005)
(0.11 0.764762 -0.005)
(0.11 0.789524 -0.005)
(0.11 0.814286 -0.005)
(0.11 0.839048 -0.005)
(0.11 0.86381 -0.005)
(0.11 0.888571 -0.005)
(0.11 0.913333 -0.005)
(0.11 0.938095 -0.005)
(0.11 0.962857 -0.005)
(0.11 0.987619 -0.005)
(0.13 0.492381 -0.005)
(0.13 0.517143 -0.005)
(0.13 0.541905 -0.005)
(0.13 0.566667 -0.005)
(0.13 0.591429 -0.005)
(0.13 0.61619 -0.005)
(0.13 0.640952 -0.005)
(0.13 0.665714 -0.005)
(0.13 0.690476 -0.005)
(0.13 0.715238 -0.005)
(0.13 0.74 -0.005)
(0.13 0.764762 -0.005)
(0.13 0.789524 -0.005)
(0.13 0.814286 -0.005)
(0.13 0.839048 -0.005)
(0.13 0.86381 -0.005)
(0.13 0.888571 -0.005)
(0.13 0.913333 -0.005)
(0.13 0.938095 -0.005)
(0.13 0.962857 -0.005)
(0.13 0.987619 -0.005)
(0.15 0.492381 -0.005)
(0.15 0.517143 -0.005)
(0.15 0.541905 -0.005)
(0.15 0.566667 -0.005)
(0.15 0.591429 -0.005)
(0.15 0.61619 -0.005)
(0.15 0.640952 -0.005)
(0.15 0.665714 -0.005)
(0.15 0.690476 -0.005)
(0.15 0.715238 -0.005)
(0.15 0.74 -0.005)
(0.15 0.764762 -0.005)
(0.15 0.789524 -0.005)
(0.15 0.814286 -0.005)
(0.15 0.839048 -0.005)
(0.15 0.86381 -0.005)
(0.15 0.888571 -0.005)
(0.15 0.913333 -0.005)
(0.15 0.938095 -0.005)
(0.15 0.962857 -0.005)
(0.15 0.987619 -0.005)
(0.17 0.492381 -0.005)
(0.17 0.517143 -0.005)
(0.17 0.541905 -0.005)
(0.17 0.566667 -0.005)
(0.17 0.591429 -0.005)
(0.17 0.61619 -0.005)
(0.17 0.640952 -0.005)
(0.17 0.665714 -0.005)
(0.17 0.690476 -0.005)
(0.17 0.715238 -0.005)
(0.17 0.74 -0.005)
(0.17 0.764762 -0.005)
(0.17 0.789524 -0.005)
(0.17 0.814286 -0.005)
(0.17 0.839048 -0.005)
(0.17 0.86381 -0.005)
(0.17 0.888571 -0.005)
(0.17 0.913333 -0.005)
(0.17 0.938095 -0.005)
(0.17 0.962857 -0.005)
(0.17 0.987619 -0.005)
(0.19 0.492381 -0.005)
(0.19 0.517143 -0.005)
(0.19 0.541905 -0.005)
(0.19 0.566667 -0.005)
(0.19 0.591429 -0.005)
(0.19 0.61619 -0.005)
(0.19 0.640952 -0.005)
(0.19 0.665714 -0.005)
(0.19 0.690476 -0.005)
(0.19 0.715238 -0.005)
(0.19 0.74 -0.005)
(0.19 0.764762 -0.005)
(0.19 0.789524 -0.005)
(0.19 0.814286 -0.005)
(0.19 0.839048 -0.005)
(0.19 0.86381 -0.005)
(0.19 0.888571 -0.005)
(0.19 0.913333 -0.005)
(0.19 0.938095 -0.005)
(0.19 0.962857 -0.005)
(0.19 0.987619 -0.005)
(0.01 0.0126316 -0.005)
(0.01 0.0378947 -0.005)
(0.01 0.0631579 -0.005)
(0.01 0.0884211 -0.005)
(0.01 0.113684 -0.005)
(0.01 0.138947 -0.005)
(0.01 0.164211 -0.005)
(0.01 0.189474 -0.005)
(0.01 0.214737 -0.005)
(0.01 0.24 -0.005)
(0.01 0.265263 -0.005)
(0.01 0.290526 -0.005)
(0.01 0.315789 -0.005)
(0.01 0.341053 -0.005)
(0.01 0.366316 -0.005)
(0.01 0.391579 -0.005)
(0.01 0.416842 -0.005)
(0.01 0.442105 -0.005)
(0.01 0.467368 -0.005)
(0.03 0.0126316 -0.005)
(0.03 0.0378947 -0.005)
(0.03 0.0631579 -0.005)
(0.03 0.0884211 -0.005)
(0.03 0.113684 -0.005)
(0.03 0.138947 -0.005)
(0.03 0.164211 -0.005)
(0.03 0.189474 -0.005)
(0.03 0.214737 -0.005)
(0.03 0.24 -0.005)
(0.03 0.265263 -0.005)
(0.03 0.290526 -0.005)
(0.03 0.315789 -0.005)
(0.03 0.341053 -0.005)
(0.03 0.366316 -0.005)
(0.03 0.391579 -0.005)
(0.03 0.416842 -0.005)
(0.03 0.442105 -0.005)
(0.03 0.467368 -0.005)
(0.05 0.0126316 -0.005)
(0.05 0.0378947 -0.005)
(0.05 0.0631579 -0.005)
(0.05 0.0884211 -0.005)
(0.05 0.113684 -0.005)
(0.05 0.138947 -0.005)
(0.05 0.164211 -0.005)
(0.05 0.189474 -0.005)
(0.05 0.214737 -0.005)
(0.05 0.24 -0.005)
(0.05 0.265263 -0.005)
(0.05 0.290526 -0.005)
(0.05 0.315789 -0.005)
(0.05 0.341053 -0.005)
(0.05 0.366316 -0.005)
(0.05 0.391579 -0.005)
(0.05 0.416842 -0.005)
(0.05 0.442105 -0.005)
(0.05 0.467368 -0.005)
(0.07 0.0126316 -0.005)
(0.07 0.0378947 -0.005)
(0.07 0.0631579 -0.005)
(0.07 0.0884211 -0.005)
(0.07 0.113684 -0.005)
(0.07 0.138947 -0.005)
(0.07 0.164211 -0.005)
(0.07 0.189474 -0.005)
(0.07 0.214737 -0.005)
(0.07 0.24 -0.005)
(0.07 0.265263 -0.005)
(0.07 0.290526 -0.005)
(0.07 0.315789 -0.005)
(0.07 0.341053 -0.005)
(0.07 0.366316 -0.005)
(0.07 0.391579 -0.005)
(0.07 0.416842 -0.005)
(0.07 0.442105 -0.005)
(0.07 0.467368 -0.005)
(0.09 0.0126316 -0.005)
(0.09 0.0378947 -0.005)
(0.09 0.0631579 -0.005)
(0.09 0.0884211 -0.005)
(0.09 0.113684 -0.005)
(0.09 0.138947 -0.005)
(0.09 0.164211 -0.005)
(0.09 0.189474 -0.005)
(0.09 0.214737 -0.005)
(0.09 0.24 -0.005)
(0.09 0.265263 -0.005)
(0.09 0.290526 -0.005)
(0.09 0.315789 -0.005)
(0.09 0.341053 -0.005)
(0.09 0.366316 -0.005)
(0.09 0.391579 -0.005)
(0.09 0.416842 -0.005)
(0.09 0.442105 -0.005)
(0.09 0.467368 -0.005)
(0.11 0.0126316 -0.005)
(0.11 0.0378947 -0.005)
(0.11 0.0631579 -0.005)
(0.11 0.0884211 -0.005)
(0.11 0.113684 -0.005)
(0.11 0.138947 -0.005)
(0.11 0.164211 -0.005)
(0.11 0.189474 -0.005)
(0.11 0.214737 -0.005)
(0.11 0.24 -0.005)
(0.11 0.265263 -0.005)
(0.11 0.290526 -0.005)
(0.11 0.315789 -0.005)
(0.11 0.341053 -0.005)
(0.11 0.366316 -0.005)
(0.11 0.391579 -0.005)
(0.11 0.416842 -0.005)
(0.11 0.442105 -0.005)
(0.11 0.467368 -0.005)
(0.13 0.0126316 -0.005)
(0.13 0.0378947 -0.005)
(0.13 0.0631579 -0.005)
(0.13 0.0884211 -0.005)
(0.13 0.113684 -0.005)
(0.13 0.138947 -0.005)
(0.13 0.164211 -0.005)
(0.13 0.189474 -0.005)
(0.13 0.214737 -0.005)
(0.13 0.24 -0.005)
(0.13 0.265263 -0.005)
(0.13 0.290526 -0.005)
(0.13 0.315789 -0.005)
(0.13 0.341053 -0.005)
(0.13 0.366316 -0.005)
(0.13 0.391579 -0.005)
(0.13 0.416842 -0.005)
(0.13 0.442105 -0.005)
(0.13 0.467368 -0.005)
(0.15 0.0126316 -0.005)
(0.15 0.0378947 -0.005)
(0.15 0.0631579 -0.005)
(0.15 0.0884211 -0.005)
(0.15 0.113684 -0.005)
(0.15 0.138947 -0.005)
(0.15 0.164211 -0.005)
(0.15 0.189474 -0.005)
(0.15 0.214737 -0.005)
(0.15 0.24 -0.005)
(0.15 0.265263 -0.005)
(0.15 0.290526 -0.005)
(0.15 0.315789 -0.005)
(0.15 0.341053 -0.005)
(0.15 0.366316 -0.005)
(0.15 0.391579 -0.005)
(0.15 0.416842 -0.005)
(0.15 0.442105 -0.005)
(0.15 0.467368 -0.005)
(0.17 0.0126316 -0.005)
(0.17 0.0378947 -0.005)
(0.17 0.0631579 -0.005)
(0.17 0.0884211 -0.005)
(0.17 0.113684 -0.005)
(0.17 0.138947 -0.005)
(0.17 0.164211 -0.005)
(0.17 0.189474 -0.005)
(0.17 0.214737 -0.005)
(0.17 0.24 -0.005)
(0.17 0.265263 -0.005)
(0.17 0.290526 -0.005)
(0.17 0.315789 -0.005)
(0.17 0.341053 -0.005)
(0.17 0.366316 -0.005)
(0.17 0.391579 -0.005)
(0.17 0.416842 -0.005)
(0.17 0.442105 -0.005)
(0.17 0.467368 -0.005)
(0.19 0.0126316 -0.005)
(0.19 0.0378947 -0.005)
(0.19 0.0631579 -0.005)
(0.19 0.0884211 -0.005)
(0.19 0.113684 -0.005)
(0.19 0.138947 -0.005)
(0.19 0.164211 -0.005)
(0.19 0.189474 -0.005)
(0.19 0.214737 -0.005)
(0.19 0.24 -0.005)
(0.19 0.265263 -0.005)
(0.19 0.290526 -0.005)
(0.19 0.315789 -0.005)
(0.19 0.341053 -0.005)
(0.19 0.366316 -0.005)
(0.19 0.391579 -0.005)
(0.19 0.416842 -0.005)
(0.19 0.442105 -0.005)
(0.19 0.467368 -0.005)
(0.210625 0.492381 -0.005)
(0.210625 0.517143 -0.005)
(0.210625 0.541905 -0.005)
(0.210625 0.566667 -0.005)
(0.210625 0.591429 -0.005)
(0.210625 0.61619 -0.005)
(0.210625 0.640952 -0.005)
(0.210625 0.665714 -0.005)
(0.210625 0.690476 -0.005)
(0.210625 0.715238 -0.005)
(0.210625 0.74 -0.005)
(0.210625 0.764762 -0.005)
(0.210625 0.789524 -0.005)
(0.210625 0.814286 -0.005)
(0.210625 0.839048 -0.005)
(0.210625 0.86381 -0.005)
(0.210625 0.888571 -0.005)
(0.210625 0.913333 -0.005)
(0.210625 0.938095 -0.005)
(0.210625 0.962857 -0.005)
(0.210625 0.987619 -0.005)
(0.231875 0.492381 -0.005)
(0.231875 0.517143 -0.005)
(0.231875 0.541905 -0.005)
(0.231875 0.566667 -0.005)
(0.231875 0.591429 -0.005)
(0.231875 0.61619 -0.005)
(0.231875 0.640952 -0.005)
(0.231875 0.665714 -0.005)
(0.231875 0.690476 -0.005)
(0.231875 0.715238 -0.005)
(0.231875 0.74 -0.005)
(0.231875 0.764762 -0.005)
(0.231875 0.789524 -0.005)
(0.231875 0.814286 -0.005)
(0.231875 0.839048 -0.005)
(0.231875 0.86381 -0.005)
(0.231875 0.888571 -0.005)
(0.231875 0.913333 -0.005)
(0.231875 0.938095 -0.005)
(0.231875 0.962857 -0.005)
(0.231875 0.987619 -0.005)
(0.253125 0.492381 -0.005)
(0.253125 0.517143 -0.005)
(0.253125 0.541905 -0.005)
(0.253125 0.566667 -0.005)
(0.253125 0.591429 -0.005)
(0.253125 0.61619 -0.005)
(0.253125 0.640952 -0.005)
(0.253125 0.665714 -0.005)
(0.253125 0.690476 -0.005)
(0.253125 0.715238 -0.005)
(0.253125 0.74 -0.005)
(0.253125 0.764762 -0.005)
(0.253125 0.789524 -0.005)
(0.253125 0.814286 -0.005)
(0.253125 0.839048 -0.005)
(0.253125 0.86381 -0.005)
(0.253125 0.888571 -0.005)
(0.253125 0.913333 -0.005)
(0.253125 0.938095 -0.005)
(0.253125 0.962857 -0.005)
(0.253125 0.987619 -0.005)
(0.274375 0.492381 -0.005)
(0.274375 0.517143 -0.005)
(0.274375 0.541905 -0.005)
(0.274375 0.566667 -0.005)
(0.274375 0.591429 -0.005)
(0.274375 0.61619 -0.005)
(0.274375 0.640952 -0.005)
(0.274375 0.665714 -0.005)
(0.274375 0.690476 -0.005)
(0.274375 0.715238 -0.005)
(0.274375 0.74 -0.005)
(0.274375 0.764762 -0.005)
(0.274375 0.789524 -0.005)
(0.274375 0.814286 -0.005)
(0.274375 0.839048 -0.005)
(0.274375 0.86381 -0.005)
(0.274375 0.888571 -0.005)
(0.274375 0.913333 -0.005)
(0.274375 0.938095 -0.005)
(0.274375 0.962857 -0.005)
(0.274375 0.987619 -0.005)
(0.295625 0.492381 -0.005)
(0.295625 0.517143 -0.005)
(0.295625 0.541905 -0.005)
(0.295625 0.566667 -0.005)
(0.295625 0.591429 -0.005)
(0.295625 0.61619 -0.005)
(0.295625 0.640952 -0.005)
(0.295625 0.665714 -0.005)
(0.295625 0.690476 -0.005)
(0.295625 0.715238 -0.005)
(0.295625 0.74 -0.005)
(0.295625 0.764762 -0.005)
(0.295625 0.789524 -0.005)
(0.295625 0.814286 -0.005)
(0.295625 0.839048 -0.005)
(0.295625 0.86381 -0.005)
(0.295625 0.888571 -0.005)
(0.295625 0.913333 -0.005)
(0.295625 0.938095 -0.005)
(0.295625 0.962857 -0.005)
(0.295625 0.987619 -0.005)
(0.316875 0.492381 -0.005)
(0.316875 0.517143 -0.005)
(0.316875 0.541905 -0.005)
(0.316875 0.566667 -0.005)
(0.316875 0.591429 -0.005)
(0.316875 0.61619 -0.005)
(0.316875 0.640952 -0.005)
(0.316875 0.665714 -0.005)
(0.316875 0.690476 -0.005)
(0.316875 0.715238 -0.005)
(0.316875 0.74 -0.005)
(0.316875 0.764762 -0.005)
(0.316875 0.789524 -0.005)
(0.316875 0.814286 -0.005)
(0.316875 0.839048 -0.005)
(0.316875 0.86381 -0.005)
(0.316875 0.888571 -0.005)
(0.316875 0.913333 -0.005)
(0.316875 0.938095 -0.005)
(0.316875 0.962857 -0.005)
(0.316875 0.987619 -0.005)
(0.338125 0.492381 -0.005)
(0.338125 0.517143 -0.005)
(0.338125 0.541905 -0.005)
(0.338125 0.566667 -0.005)
(0.338125 0.591429 -0.005)
(0.338125 0.61619 -0.005)
(0.338125 0.640952 -0.005)
(0.338125 0.665714 -0.005)
(0.338125 0.690476 -0.005)
(0.338125 0.715238 -0.005)
(0.338125 0.74 -0.005)
(0.338125 0.764762 -0.005)
(0.338125 0.789524 -0.005)
(0.338125 0.814286 -0.005)
(0.338125 0.839048 -0.005)
(0.338125 0.86381 -0.005)
(0.338125 0.888571 -0.005)
(0.338125 0.913333 -0.005)
(0.338125 0.938095 -0.005)
(0.338125 0.962857 -0.005)
(0.338125 0.987619 -0.005)
(0.359375 0.492381 -0.005)
(0.359375 0.517143 -0.005)
(0.359375 0.541905 -0.005)
(0.359375 0.566667 -0.005)
(0.359375 0.591429 -0.005)
(0.359375 0.61619 -0.005)
(0.359375 0.640952 -0.005)
(0.359375 0.665714 -0.005)
(0.359375 0.690476 -0.005)
(0.359375 0.715238 -0.005)
(0.359375 0.74 -0.005)
(0.359375 0.764762 -0.005)
(0.359375 0.789524 -0.005)
(0.359375 0.814286 -0.005)
(0.359375 0.839048 -0.005)
(0.359375 0.86381 -0.005)
(0.359375 0.888571 -0.005)
(0.359375 0.913333 -0.005)
(0.359375 0.938095 -0.005)
(0.359375 0.962857 -0.005)
(0.359375 0.987619 -0.005)
(0.380625 0.492381 -0.005)
(0.380625 0.517143 -0.005)
(0.380625 0.541905 -0.005)
(0.380625 0.566667 -0.005)
(0.380625 0.591429 -0.005)
(0.380625 0.61619 -0.005)
(0.380625 0.640952 -0.005)
(0.380625 0.665714 -0.005)
(0.380625 0.690476 -0.005)
(0.380625 0.715238 -0.005)
(0.380625 0.74 -0.005)
(0.380625 0.764762 -0.005)
(0.380625 0.789524 -0.005)
(0.380625 0.814286 -0.005)
(0.380625 0.839048 -0.005)
(0.380625 0.86381 -0.005)
(0.380625 0.888571 -0.005)
(0.380625 0.913333 -0.005)
(0.380625 0.938095 -0.005)
(0.380625 0.962857 -0.005)
(0.380625 0.987619 -0.005)
(0.401875 0.492381 -0.005)
(0.401875 0.517143 -0.005)
(0.401875 0.541905 -0.005)
(0.401875 0.566667 -0.005)
(0.401875 0.591429 -0.005)
(0.401875 0.61619 -0.005)
(0.401875 0.640952 -0.005)
(0.401875 0.665714 -0.005)
(0.401875 0.690476 -0.005)
(0.401875 0.715238 -0.005)
(0.401875 0.74 -0.005)
(0.401875 0.764762 -0.005)
(0.401875 0.789524 -0.005)
(0.401875 0.814286 -0.005)
(0.401875 0.839048 -0.005)
(0.401875 0.86381 -0.005)
(0.401875 0.888571 -0.005)
(0.401875 0.913333 -0.005)
(0.401875 0.938095 -0.005)
(0.401875 0.962857 -0.005)
(0.401875 0.987619 -0.005)
(0.423125 0.492381 -0.005)
(0.423125 0.517143 -0.005)
(0.423125 0.541905 -0.005)
(0.423125 0.566667 -0.005)
(0.423125 0.591429 -0.005)
(0.423125 0.61619 -0.005)
(0.423125 0.640952 -0.005)
(0.423125 0.665714 -0.005)
(0.423125 0.690476 -0.005)
(0.423125 0.715238 -0.005)
(0.423125 0.74 -0.005)
(0.423125 0.764762 -0.005)
(0.423125 0.789524 -0.005)
(0.423125 0.814286 -0.005)
(0.423125 0.839048 -0.005)
(0.423125 0.86381 -0.005)
(0.423125 0.888571 -0.005)
(0.423125 0.913333 -0.005)
(0.423125 0.938095 -0.005)
(0.423125 0.962857 -0.005)
(0.423125 0.987619 -0.005)
(0.444375 0.492381 -0.005)
(0.444375 0.517143 -0.005)
(0.444375 0.541905 -0.005)
(0.444375 0.566667 -0.005)
(0.444375 0.591429 -0.005)
(0.444375 0.61619 -0.005)
(0.444375 0.640952 -0.005)
(0.444375 0.665714 -0.005)
(0.444375 0.690476 -0.005)
(0.444375 0.715238 -0.005)
(0.444375 0.74 -0.005)
(0.444375 0.764762 -0.005)
(0.444375 0.789524 -0.005)
(0.444375 0.814286 -0.005)
(0.444375 0.839048 -0.005)
(0.444375 0.86381 -0.005)
(0.444375 0.888571 -0.005)
(0.444375 0.913333 -0.005)
(0.444375 0.938095 -0.005)
(0.444375 0.962857 -0.005)
(0.444375 0.987619 -0.005)
(0.465625 0.492381 -0.005)
(0.465625 0.517143 -0.005)
(0.465625 0.541905 -0.005)
(0.465625 0.566667 -0.005)
(0.465625 0.591429 -0.005)
(0.465625 0.61619 -0.005)
(0.465625 0.640952 -0.005)
(0.465625 0.665714 -0.005)
(0.465625 0.690476 -0.005)
(0.465625 0.715238 -0.005)
(0.465625 0.74 -0.005)
(0.465625 0.764762 -0.005)
(0.465625 0.789524 -0.005)
(0.465625 0.814286 -0.005)
(0.465625 0.839048 -0.005)
(0.465625 0.86381 -0.005)
(0.465625 0.888571 -0.005)
(0.465625 0.913333 -0.005)
(0.465625 0.938095 -0.005)
(0.465625 0.962857 -0.005)
(0.465625 0.987619 -0.005)
(0.486875 0.492381 -0.005)
(0.486875 0.517143 -0.005)
(0.486875 0.541905 -0.005)
(0.486875 0.566667 -0.005)
(0.486875 0.591429 -0.005)
(0.486875 0.61619 -0.005)
(0.486875 0.640952 -0.005)
(0.486875 0.665714 -0.005)
(0.486875 0.690476 -0.005)
(0.486875 0.715238 -0.005)
(0.486875 0.74 -0.005)
(0.486875 0.764762 -0.005)
(0.486875 0.789524 -0.005)
(0.486875 0.814286 -0.005)
(0.486875 0.839048 -0.005)
(0.486875 0.86381 -0.005)
(0.486875 0.888571 -0.005)
(0.486875 0.913333 -0.005)
(0.486875 0.938095 -0.005)
(0.486875 0.962857 -0.005)
(0.486875 0.987619 -0.005)
(0.508125 0.492381 -0.005)
(0.508125 0.517143 -0.005)
(0.508125 0.541905 -0.005)
(0.508125 0.566667 -0.005)
(0.508125 0.591429 -0.005)
(0.508125 0.61619 -0.005)
(0.508125 0.640952 -0.005)
(0.508125 0.665714 -0.005)
(0.508125 0.690476 -0.005)
(0.508125 0.715238 -0.005)
(0.508125 0.74 -0.005)
(0.508125 0.764762 -0.005)
(0.508125 0.789524 -0.005)
(0.508125 0.814286 -0.005)
(0.508125 0.839048 -0.005)
(0.508125 0.86381 -0.005)
(0.508125 0.888571 -0.005)
(0.508125 0.913333 -0.005)
(0.508125 0.938095 -0.005)
(0.508125 0.962857 -0.005)
(0.508125 0.987619 -0.005)
(0.529375 0.492381 -0.005)
(0.529375 0.517143 -0.005)
(0.529375 0.541905 -0.005)
(0.529375 0.566667 -0.005)
(0.529375 0.591429 -0.005)
(0.529375 0.61619 -0.005)
(0.529375 0.640952 -0.005)
(0.529375 0.665714 -0.005)
(0.529375 0.690476 -0.005)
(0.529375 0.715238 -0.005)
(0.529375 0.74 -0.005)
(0.529375 0.764762 -0.005)
(0.529375 0.789524 -0.005)
(0.529375 0.814286 -0.005)
(0.529375 0.839048 -0.005)
(0.529375 0.86381 -0.005)
(0.529375 0.888571 -0.005)
(0.529375 0.913333 -0.005)
(0.529375 0.938095 -0.005)
(0.529375 0.962857 -0.005)
(0.529375 0.987619 -0.005)
(0.550625 0.492381 -0.005)
(0.550625 0.517143 -0.005)
(0.550625 0.541905 -0.005)
(0.550625 0.566667 -0.005)
(0.550625 0.591429 -0.005)
(0.550625 0.61619 -0.005)
(0.550625 0.640952 -0.005)
(0.550625 0.665714 -0.005)
(0.550625 0.690476 -0.005)
(0.550625 0.715238 -0.005)
(0.550625 0.74 -0.005)
(0.550625 0.764762 -0.005)
(0.550625 0.789524 -0.005)
(0.550625 0.814286 -0.005)
(0.550625 0.839048 -0.005)
(0.550625 0.86381 -0.005)
(0.550625 0.888571 -0.005)
(0.550625 0.913333 -0.005)
(0.550625 0.938095 -0.005)
(0.550625 0.962857 -0.005)
(0.550625 0.987619 -0.005)
(0.571875 0.492381 -0.005)
(0.571875 0.517143 -0.005)
(0.571875 0.541905 -0.005)
(0.571875 0.566667 -0.005)
(0.571875 0.591429 -0.005)
(0.571875 0.61619 -0.005)
(0.571875 0.640952 -0.005)
(0.571875 0.665714 -0.005)
(0.571875 0.690476 -0.005)
(0.571875 0.715238 -0.005)
(0.571875 0.74 -0.005)
(0.571875 0.764762 -0.005)
(0.571875 0.789524 -0.005)
(0.571875 0.814286 -0.005)
(0.571875 0.839048 -0.005)
(0.571875 0.86381 -0.005)
(0.571875 0.888571 -0.005)
(0.571875 0.913333 -0.005)
(0.571875 0.938095 -0.005)
(0.571875 0.962857 -0.005)
(0.571875 0.987619 -0.005)
(0.593125 0.492381 -0.005)
(0.593125 0.517143 -0.005)
(0.593125 0.541905 -0.005)
(0.593125 0.566667 -0.005)
(0.593125 0.591429 -0.005)
(0.593125 0.61619 -0.005)
(0.593125 0.640952 -0.005)
(0.593125 0.665714 -0.005)
(0.593125 0.690476 -0.005)
(0.593125 0.715238 -0.005)
(0.593125 0.74 -0.005)
(0.593125 0.764762 -0.005)
(0.593125 0.789524 -0.005)
(0.593125 0.814286 -0.005)
(0.593125 0.839048 -0.005)
(0.593125 0.86381 -0.005)
(0.593125 0.888571 -0.005)
(0.593125 0.913333 -0.005)
(0.593125 0.938095 -0.005)
(0.593125 0.962857 -0.005)
(0.593125 0.987619 -0.005)
(0.614375 0.492381 -0.005)
(0.614375 0.517143 -0.005)
(0.614375 0.541905 -0.005)
(0.614375 0.566667 -0.005)
(0.614375 0.591429 -0.005)
(0.614375 0.61619 -0.005)
(0.614375 0.640952 -0.005)
(0.614375 0.665714 -0.005)
(0.614375 0.690476 -0.005)
(0.614375 0.715238 -0.005)
(0.614375 0.74 -0.005)
(0.614375 0.764762 -0.005)
(0.614375 0.789524 -0.005)
(0.614375 0.814286 -0.005)
(0.614375 0.839048 -0.005)
(0.614375 0.86381 -0.005)
(0.614375 0.888571 -0.005)
(0.614375 0.913333 -0.005)
(0.614375 0.938095 -0.005)
(0.614375 0.962857 -0.005)
(0.614375 0.987619 -0.005)
(0.635625 0.492381 -0.005)
(0.635625 0.517143 -0.005)
(0.635625 0.541905 -0.005)
(0.635625 0.566667 -0.005)
(0.635625 0.591429 -0.005)
(0.635625 0.61619 -0.005)
(0.635625 0.640952 -0.005)
(0.635625 0.665714 -0.005)
(0.635625 0.690476 -0.005)
(0.635625 0.715238 -0.005)
(0.635625 0.74 -0.005)
(0.635625 0.764762 -0.005)
(0.635625 0.789524 -0.005)
(0.635625 0.814286 -0.005)
(0.635625 0.839048 -0.005)
(0.635625 0.86381 -0.005)
(0.635625 0.888571 -0.005)
(0.635625 0.913333 -0.005)
(0.635625 0.938095 -0.005)
(0.635625 0.962857 -0.005)
(0.635625 0.987619 -0.005)
(0.656875 0.492381 -0.005)
(0.656875 0.517143 -0.005)
(0.656875 0.541905 -0.005)
(0.656875 0.566667 -0.005)
(0.656875 0.591429 -0.005)
(0.656875 0.61619 -0.005)
(0.656875 0.640952 -0.005)
(0.656875 0.665714 -0.005)
(0.656875 0.690476 -0.005)
(0.656875 0.715238 -0.005)
(0.656875 0.74 -0.005)
(0.656875 0.764762 -0.005)
(0.656875 0.789524 -0.005)
(0.656875 0.814286 -0.005)
(0.656875 0.839048 -0.005)
(0.656875 0.86381 -0.005)
(0.656875 0.888571 -0.005)
(0.656875 0.913333 -0.005)
(0.656875 0.938095 -0.005)
(0.656875 0.962857 -0.005)
(0.656875 0.987619 -0.005)
(0.678125 0.492381 -0.005)
(0.678125 0.517143 -0.005)
(0.678125 0.541905 -0.005)
(0.678125 0.566667 -0.005)
(0.678125 0.591429 -0.005)
(0.678125 0.61619 -0.005)
(0.678125 0.640952 -0.005)
(0.678125 0.665714 -0.005)
(0.678125 0.690476 -0.005)
(0.678125 0.715238 -0.005)
(0.678125 0.74 -0.005)
(0.678125 0.764762 -0.005)
(0.678125 0.789524 -0.005)
(0.678125 0.814286 -0.005)
(0.678125 0.839048 -0.005)
(0.678125 0.86381 -0.005)
(0.678125 0.888571 -0.005)
(0.678125 0.913333 -0.005)
(0.678125 0.938095 -0.005)
(0.678125 0.962857 -0.005)
(0.678125 0.987619 -0.005)
(0.699375 0.492381 -0.005)
(0.699375 0.517143 -0.005)
(0.699375 0.541905 -0.005)
(0.699375 0.566667 -0.005)
(0.699375 0.591429 -0.005)
(0.699375 0.61619 -0.005)
(0.699375 0.640952 -0.005)
(0.699375 0.665714 -0.005)
(0.699375 0.690476 -0.005)
(0.699375 0.715238 -0.005)
(0.699375 0.74 -0.005)
(0.699375 0.764762 -0.005)
(0.699375 0.789524 -0.005)
(0.699375 0.814286 -0.005)
(0.699375 0.839048 -0.005)
(0.699375 0.86381 -0.005)
(0.699375 0.888571 -0.005)
(0.699375 0.913333 -0.005)
(0.699375 0.938095 -0.005)
(0.699375 0.962857 -0.005)
(0.699375 0.987619 -0.005)
(0.720625 0.492381 -0.005)
(0.720625 0.517143 -0.005)
(0.720625 0.541905 -0.005)
(0.720625 0.566667 -0.005)
(0.720625 0.591429 -0.005)
(0.720625 0.61619 -0.005)
(0.720625 0.640952 -0.005)
(0.720625 0.665714 -0.005)
(0.720625 0.690476 -0.005)
(0.720625 0.715238 -0.005)
(0.720625 0.74 -0.005)
(0.720625 0.764762 -0.005)
(0.720625 0.789524 -0.005)
(0.720625 0.814286 -0.005)
(0.720625 0.839048 -0.005)
(0.720625 0.86381 -0.005)
(0.720625 0.888571 -0.005)
(0.720625 0.913333 -0.005)
(0.720625 0.938095 -0.005)
(0.720625 0.962857 -0.005)
(0.720625 0.987619 -0.005)
(0.741875 0.492381 -0.005)
(0.741875 0.517143 -0.005)
(0.741875 0.541905 -0.005)
(0.741875 0.566667 -0.005)
(0.741875 0.591429 -0.005)
(0.741875 0.61619 -0.005)
(0.741875 0.640952 -0.005)
(0.741875 0.665714 -0.005)
(0.741875 0.690476 -0.005)
(0.741875 0.715238 -0.005)
(0.741875 0.74 -0.005)
(0.741875 0.764762 -0.005)
(0.741875 0.789524 -0.005)
(0.741875 0.814286 -0.005)
(0.741875 0.839048 -0.005)
(0.741875 0.86381 -0.005)
(0.741875 0.888571 -0.005)
(0.741875 0.913333 -0.005)
(0.741875 0.938095 -0.005)
(0.741875 0.962857 -0.005)
(0.741875 0.987619 -0.005)
(0.763125 0.492381 -0.005)
(0.763125 0.517143 -0.005)
(0.763125 0.541905 -0.005)
(0.763125 0.566667 -0.005)
(0.763125 0.591429 -0.005)
(0.763125 0.61619 -0.005)
(0.763125 0.640952 -0.005)
(0.763125 0.665714 -0.005)
(0.763125 0.690476 -0.005)
(0.763125 0.715238 -0.005)
(0.763125 0.74 -0.005)
(0.763125 0.764762 -0.005)
(0.763125 0.789524 -0.005)
(0.763125 0.814286 -0.005)
(0.763125 0.839048 -0.005)
(0.763125 0.86381 -0.005)
(0.763125 0.888571 -0.005)
(0.763125 0.913333 -0.005)
(0.763125 0.938095 -0.005)
(0.763125 0.962857 -0.005)
(0.763125 0.987619 -0.005)
(0.784375 0.492381 -0.005)
(0.784375 0.517143 -0.005)
(0.784375 0.541905 -0.005)
(0.784375 0.566667 -0.005)
(0.784375 0.591429 -0.005)
(0.784375 0.61619 -0.005)
(0.784375 0.640952 -0.005)
(0.784375 0.665714 -0.005)
(0.784375 0.690476 -0.005)
(0.784375 0.715238 -0.005)
(0.784375 0.74 -0.005)
(0.784375 0.764762 -0.005)
(0.784375 0.789524 -0.005)
(0.784375 0.814286 -0.005)
(0.784375 0.839048 -0.005)
(0.784375 0.86381 -0.005)
(0.784375 0.888571 -0.005)
(0.784375 0.913333 -0.005)
(0.784375 0.938095 -0.005)
(0.784375 0.962857 -0.005)
(0.784375 0.987619 -0.005)
(0.805625 0.492381 -0.005)
(0.805625 0.517143 -0.005)
(0.805625 0.541905 -0.005)