/*--------------------------------*- C++ -*----------------------------------*\
| =========                 |                                                 |
| \\      /  F ield         | OpenFOAM: The Open Source CFD Toolbox           |
|  \\    /   O peration     | Version:  v2012                                 |
|   \\  /    A nd           | Website:  www.openfoam.com                      |
|    \\/     M anipulation  |                                                 |
\*---------------------------------------------------------------------------*/
FoamFile
{
    version     2.0;
    format      ascii;
    class       volScalarField;
    location    "622";
    object      k;
}
// * * * * * * * * * * * * * * * * * * * * * * * * * * * * * * * * * * * * * //

dimensions      [0 2 -2 0 0 0 0];


internalField   nonuniform List<scalar> 
6057
(
0.0465469
0.050236
0.0544288
0.0592208
0.0647361
0.0711364
0.0786349
0.0875174
0.0981753
0.111158
0.127256
0.147648
0.174154
0.209712
0.259319
0.332015
0.445443
0.637345
0.998178
1.77762
0.114343
0.123621
0.134117
0.146061
0.159738
0.175508
0.193838
0.215338
0.240819
0.27138
0.308541
0.354454
0.41224
0.486562
0.5846
0.717798
0.905023
1.17836
1.59308
2.23996
0.15213
0.164478
0.178425
0.194257
0.21233
0.233099
0.257137
0.28518
0.318189
0.357439
0.404646
0.462166
0.533296
0.622745
0.737394
0.887515
1.08879
1.36564
1.75678
2.3249
0.174131
0.188267
0.204214
0.222286
0.242877
0.266477
0.293702
0.325334
0.362376
0.406134
0.458333
0.521285
0.598145
0.693305
0.813011
0.96637
1.16706
1.43639
1.80923
2.34706
0.184495
0.199482
0.216374
0.235499
0.257264
0.282173
0.310856
0.344104
0.382927
0.42862
0.482879
0.547942
0.626828
0.723687
0.844378
0.997435
1.19582
1.46024
1.82585
2.35666
0.184425
0.199431
0.216336
0.23547
0.257242
0.282157
0.310844
0.344096
0.38292
0.428616
0.482875
0.547939
0.626826
0.723686
0.844377
0.997435
1.19582
1.46024
1.82585
2.35666
0.173923
0.188117
0.204103
0.222205
0.242818
0.266434
0.293671
0.325311
0.36236
0.406122
0.458325
0.521279
0.598141
0.693302
0.813009
0.966369
1.16706
1.43639
1.80923
2.34706
0.151788
0.164243
0.178257
0.194136
0.212245
0.233039
0.257094
0.285149
0.318167
0.357422
0.404634
0.462158
0.53329
0.622741
0.73739
0.887513
1.08879
1.36564
1.75678
2.3249
0.113873
0.123337
0.133923
0.145929
0.159645
0.175442
0.193791
0.215304
0.240794
0.271362
0.308528
0.354444
0.412233
0.486557
0.584597
0.717796
0.905022
1.17835
1.59308
2.23996
0.0464101
0.0501497
0.0543699
0.0591796
0.0647066
0.0711151
0.0786194
0.0875061
0.0981671
0.111152
0.127251
0.147644
0.174151
0.20971
0.259317
0.332014
0.445442
0.637344
0.998178
1.77762
0.0146027
0.0154006
0.0162175
0.0170574
0.017925
0.0188254
0.0197648
0.0207501
0.021789
0.0228906
0.0240653
0.0253248
0.0266826
0.0281538
0.0297559
0.0315046
0.0334162
0.0355179
0.0378416
0.0404241
0.0433086
0.0328186
0.0348202
0.0368884
0.0390324
0.041261
0.0435848
0.0460159
0.0485689
0.0512608
0.0541117
0.0571451
0.0603881
0.0638727
0.0676354
0.0717188
0.076162
0.0810277
0.0863803
0.0922937
0.0988541
0.106163
0.0445596
0.0470567
0.0496538
0.0523643
0.0552014
0.0581799
0.0613165
0.0646306
0.0681449
0.0718855
0.0758829
0.0801724
0.084795
0.089798
0.095231
0.101161
0.107661
0.114813
0.122713
0.131473
0.141224
0.0519617
0.0546431
0.0574536
0.060409
0.0635249
0.0668184
0.0703087
0.0740181
0.0779719
0.0821994
0.0867348
0.0916174
0.0968928
0.102614
0.108839
0.115644
0.123107
0.131321
0.140392
0.150446
0.161631
0.056186
0.0588375
0.0616381
0.0646054
0.0677565
0.0711106
0.0746887
0.0785151
0.0826172
0.0870262
0.091778
0.0969137
0.10248
0.108532
0.115136
0.122367
0.130302
0.139036
0.148677
0.159358
0.171232
0.0577381
0.0601647
0.0627474
0.0655047
0.0684551
0.0716197
0.0750224
0.0786901
0.0826529
0.0869446
0.0916022
0.0966674
0.102187
0.108218
0.114831
0.122091
0.13007
0.138848
0.148528
0.159241
0.171141
0.0569522
0.0589722
0.061135
0.0634572
0.0659574
0.0686583
0.0715866
0.0747739
0.0782563
0.0820742
0.0862691
0.0908863
0.0959745
0.101596
0.107826
0.114724
0.122356
0.130733
0.139935
0.150094
0.161358
0.0543246
0.0558246
0.0574284
0.059143
0.0609787
0.0629523
0.0650876
0.0674167
0.069985
0.072845
0.0760551
0.07968
0.0837805
0.0884154
0.0936739
0.0996186
0.106309
0.113747
0.12192
0.13088
0.140773
0.050813
0.0518761
0.0529944
0.0541505
0.0553292
0.0565195
0.0577173
0.0589267
0.0601632
0.0614552
0.0628506
0.0645033
0.0665204
0.0689994
0.0720252
0.0756976
0.0800708
0.0852814
0.0913136
0.0981001
0.105627
0.0474452
0.0483321
0.0492496
0.0501594
0.0510217
0.051794
0.0524276
0.0528633
0.0530284
0.0528377
0.0522007
0.0510352
0.0492334
0.0466771
0.0441146
0.0419563
0.0404215
0.0396915
0.0399162
0.0410759
0.0431508
0.0010275
0.000905753
0.000928489
0.00120502
0.00227374
0.00331032
0.00429218
0.00521145
0.00605714
0.00686593
0.00765318
0.00842703
0.00919289
0.00995474
0.0107158
0.0114787
0.0122462
0.0130209
0.0138054
0.00181608
0.00225231
0.00383456
0.00577156
0.00726042
0.00854089
0.00991163
0.0115232
0.013235
0.0149169
0.0165954
0.0182812
0.0199815
0.0217029
0.0234518
0.0252343
0.0270564
0.0289239
0.030843
0.00276912
0.00530853
0.00719827
0.0090384
0.010626
0.0123847
0.0145754
0.0170489
0.0195114
0.0218823
0.0241797
0.0264178
0.0286175
0.0307997
0.0329851
0.0351923
0.0374388
0.03974
0.04211
0.00412146
0.00801912
0.00998211
0.0117608
0.0136683
0.0160992
0.0190231
0.0220849
0.0250148
0.0277665
0.0303544
0.032809
0.0351703
0.0374781
0.0397693
0.0420763
0.0444272
0.0468458
0.0493525
0.00560822
0.010546
0.0124434
0.0143347
0.0166985
0.0197368
0.0231578
0.0265469
0.0296956
0.0325766
0.0352139
0.0376567
0.0399629
0.0421886
0.0443842
0.0465931
0.048851
0.0511877
0.0536271
0.00682186
0.0127483
0.0147569
0.0168968
0.0197229
0.0232027
0.0268867
0.0303885
0.0335532
0.0363689
0.038875
0.0411376
0.043229
0.0452179
0.0471651
0.0491214
0.0511278
0.053217
0.0554145
0.00777328
0.0147171
0.0169719
0.0194406
0.022651
0.0263897
0.0301426
0.0335844
0.0366021
0.0391998
0.041433
0.0433814
0.0451292
0.0467554
0.0483283
0.0499041
0.0515261
0.0532269
0.0550305
0.00859906
0.0164638
0.0190826
0.0219027
0.0253892
0.02922
0.0328897
0.0361324
0.0388719
0.0411291
0.0429744
0.0445005
0.0458032
0.0469711
0.0480804
0.0491912
0.0503476
0.0515788
0.0529021
0.00931029
0.0180207
0.0210692
0.0242159
0.0278646
0.031653
0.0351168
0.0380491
0.0404038
0.0422224
0.0435911
0.0446176
0.0454129
0.0460797
0.0467052
0.0473561
0.0480771
0.0488921
0.049807
0.00991481
0.0194216
0.0229114
0.0263268
0.0300342
0.0336699
0.0368325
0.039363
0.0412487
0.0425555
0.0433896
0.0438804
0.0441613
0.0443559
0.044567
0.0448696
0.0453068
0.0458921
0.0466146
0.043988
0.0446565
0.0452892
0.045853
0.0463269
0.0467019
0.0469696
0.0471196
0.0471303
0.0469476
0.0464247
0.0456831
0.0447117
0.0434062
0.0415506
0.0386789
0.0340194
0.0266749
0.0189403
0.0129961
0.00780556
0.0388773
0.0385171
0.0378585
0.0368729
0.0355552
0.033916
0.031972
0.0297428
0.0272685
0.0249384
0.0228959
0.0208691
0.0186802
0.0165298
0.0145414
0.0127767
0.0107598
0.00817973
0.00559471
0.0030662
0.00133136
0.0314202
0.0294943
0.0271699
0.0245476
0.0217723
0.0190089
0.0164391
0.0143101
0.0128518
0.0116982
0.0107895
0.00994778
0.00912704
0.00833953
0.00755902
0.00674754
0.00585095
0.00482847
0.00370559
0.00240935
0.00103677
0.0230069
0.020123
0.0172366
0.0145938
0.0124003
0.0107743
0.00973041
0.00916371
0.00880733
0.00854347
0.00831233
0.008064
0.00776532
0.0073899
0.00691026
0.00631104
0.00559388
0.0047391
0.00371576
0.00250291
0.00117011
0.0159714
0.0133862
0.0113125
0.00984105
0.00893394
0.00846868
0.00830786
0.00827357
0.00828061
0.0082848
0.00825713
0.00817087
0.007999
0.00771224
0.00728268
0.00671403
0.00599554
0.00510623
0.0040181
0.00275622
0.00133186
0.011564
0.00993719
0.00891034
0.00836485
0.00815294
0.00814789
0.00824807
0.0083755
0.00849516
0.00858399
0.00862123
0.00858478
0.00845019
0.00819039
0.00777879
0.0072112
0.00647388
0.00553921
0.00439053
0.00304731
0.00149786
0.00938088
0.00856534
0.00817927
0.0080773
0.00814383
0.00829898
0.00848627
0.0086704
0.00883173
0.00895326
0.00901696
0.0090027
0.00888757
0.00864658
0.00825085
0.00768964
0.00694467
0.0059806
0.00478084
0.00334774
0.00166299
0.00846231
0.00812636
0.00806099
0.00815548
0.00833506
0.00855211
0.00877405
0.00898198
0.00916161
0.00929819
0.00937551
0.00937479
0.00927421
0.00904968
0.00867355
0.00812638
0.00738532
0.00640847
0.00516961
0.00364906
0.00182571
0.00813661
0.00806163
0.00815535
0.00834127
0.00857144
0.00881592
0.00905431
0.00927384
0.0094622
0.00960637
0.00969147
0.00969988
0.00961092
0.00940137
0.00904532
0.00851706
0.00778792
0.00681245
0.00554802
0.00394892
0.00198578
0.00807634
0.00814537
0.00832267
0.00855552
0.00881159
0.00907092
0.00931884
0.0095445
0.00973709
0.00988471
0.00997356
0.00998723
0.00990643
0.00970914
0.00937111
0.00886365
0.00815259
0.00718899
0.00591243
0.00424694
0.00214347
0.0081364
0.00828939
0.00851496
0.00877534
0.00904762
0.00931725
0.00957158
0.00980088
0.00999517
0.0101434
0.0102326
0.0102477
0.010171
0.00998216
0.00965796
0.00917048
0.00848176
0.00753819
0.00626201
0.00454352
0.00229928
0.00825356
0.00845972
0.00871667
0.00899623
0.00928115
0.00955915
0.00981854
0.0100502
0.0102445
0.0103911
0.0104778
0.0104908
0.0104141
0.0102293
0.00991519
0.0094448
0.00878006
0.00786232
0.00659749
0.0048394
0.00245377
0.00840059
0.00864377
0.00892395
0.0092193
0.00951531
0.0098007
0.0100644
0.0102974
0.0104905
0.0106337
0.0107157
0.0107236
0.0106431
0.0104579
0.0101495
0.00969331
0.00905242
0.0081646
0.00692048
0.00513545
0.00260755
0.00856598
0.00883744
0.009137
0.00944643
0.00975241
0.0100444
0.0103115
0.010545
0.0107357
0.0108741
0.0109495
0.0109499
0.0108624
0.0106731
0.0103663
0.00992115
0.00930333
0.00844844
0.007233
0.00543262
0.00276127
0.00874515
0.00904014
0.00935677
0.00967873
0.00999357
0.0102911
0.0105605
0.0107931
0.0109803
0.0111126
0.0111799
0.0111711
0.0110745
0.010878
0.0105694
0.0101324
0.00953673
0.00871722
0.00753727
0.00573194
0.00291559
0.00893661
0.00925194
0.00958354
0.00991639
0.0102386
0.01054
0.01081
0.0110402
0.0112224
0.0113476
0.0114059
0.0113868
0.0112794
0.0110738
0.010761
0.0103301
0.00975591
0.00897402
0.00783556
0.00603446
0.00307119
0.00913958
0.00947252
0.00981695
0.0101587
0.0104861
0.0107892
0.0110576
0.0112836
0.0114592
0.0115762
0.0116248
0.0115949
0.0114762
0.0112604
0.0109422
0.0105161
0.00996341
0.00922157
0.00813005
0.00634128
0.00322883
0.00935317
0.00970108
0.0100559
0.010404
0.010734
0.011036
0.0113003
0.0115198
0.0116873
0.011795
0.0118335
0.0117927
0.0116628
0.0114369
0.0111129
0.0106916
0.0101611
0.00946219
0.00842283
0.00665354
0.0033893
0.00957597
0.00993606
0.0102984
0.0106499
0.0109793
0.0112771
0.0115344
0.0117452
0.011903
0.0120004
0.0120285
0.0119772
0.0118368
0.0116016
0.0112727
0.0108569
0.0103505
0.00969789
0.00871588
0.00697239
0.00355347
0.00980551
0.0101749
0.0105418
0.0108934
0.0112188
0.0115091
0.0117567
0.0119565
0.012103
0.0121893
0.0122067
0.0121453
0.0119956
0.0117526
0.0114205
0.0110123
0.0105326
0.0099304
0.00901111
0.00729904
0.00372236
0.010038
0.0104141
0.0107827
0.0111312
0.0114494
0.011729
0.011964
0.0121508
0.0122845
0.0123589
0.0123656
0.0122949
0.0121373
0.0118886
0.0115556
0.0111577
0.0107083
0.0101613
0.00931031
0.00763472
0.00389708
0.0102686
0.0106495
0.0110173
0.0113599
0.011668
0.0119338
0.012154
0.0123258
0.0124454
0.0125073
0.0125034
0.0124241
0.0122602
0.0120083
0.0116774
0.0112932
0.0108784
0.010392
0.00961527
0.00798076
0.00407899
0.0104927
0.0108768
0.0112421
0.0115766
0.0118719
0.0121216
0.0123248
0.0124802
0.0125847
0.0126334
0.012619
0.0125321
0.0123639
0.0121112
0.0117857
0.0114192
0.0110439
0.0106241
0.0099277
0.0083386
0.00426967
0.0107062
0.0110926
0.0114543
0.0117787
0.0120592
0.012291
0.0124757
0.0126133
0.012702
0.0127373
0.0127126
0.0126192
0.0124484
0.0121977
0.0118811
0.0115365
0.011206
0.0108591
0.0102493
0.00870955
0.00447102
0.0109098
0.011295
0.011651
0.011965
0.012229
0.0124416
0.0126063
0.0127254
0.0127976
0.0128195
0.0127851
0.0126864
0.012515
0.0122689
0.0119646
0.0116464
0.0113663
0.0110987
0.0105818
0.00909488
0.00468542
0.0111035
0.0114846
0.011832
0.0121327
0.0123802
0.0125726
0.012717
0.012817
0.0128727
0.0128816
0.0128386
0.0127361
0.012566
0.0123271
0.0120383
0.0117508
0.0115268
0.0113448
0.0109267
0.00949531
0.0049159
0.011287
0.0116614
0.0119974
0.0122824
0.0125109
0.0126837
0.0128077
0.0128892
0.0129293
0.0129264
0.0128762
0.0127716
0.0126048
0.0123753
0.012105
0.0118524
0.0116899
0.0115997
0.0112858
0.00991177
0.00516641
0.0114598
0.0118248
0.0121469
0.0124141
0.0126221
0.0127741
0.0128793
0.0129437
0.0129699
0.0129573
0.0129022
0.0127976
0.0126359
0.0124176
0.0121685
0.0119548
0.0118589
0.0118657
0.0116625
0.0103514
0.00543339
0.0116216
0.0119746
0.0122807
0.0125281
0.0127147
0.0128465
0.0129339
0.0129837
0.012999
0.0129797
0.0129223
0.0128197
0.0126645
0.0124592
0.0122338
0.0120621
0.0120368
0.0121473
0.012062
0.0108183
0.00571225
0.0117727
0.0121112
0.0123995
0.0126264
0.0127916
0.0129044
0.0129761
0.0130146
0.013023
0.013001
0.0129446
0.012846
0.0126983
0.012506
0.0123045
0.0121766
0.0122262
0.0124472
0.0124889
0.0113121
0.00600448
0.0119145
0.0122361
0.0125046
0.0127105
0.0128565
0.0129534
0.013013
0.0130449
0.0130509
0.0130301
0.0129773
0.0128841
0.0127439
0.0125637
0.0123854
0.0123026
0.0124309
0.0127681
0.0129458
0.011838
0.00630992
0.0120463
0.0123496
0.0125989
0.0127861
0.012916
0.0130003
0.0130536
0.0130837
0.013092
0.013076
0.0130292
0.012942
0.0128081
0.0126382
0.0124818
0.0124446
0.0126549
0.0131139
0.0134331
0.0123976
0.00662857
0.0121712
0.0124561
0.0126878
0.0128594
0.0129775
0.0130544
0.0131069
0.0131408
0.013156
0.0131483
0.0131089
0.0130272
0.0128977
0.0127353
0.0125989
0.0126075
0.0129021
0.0134877
0.0139554
0.0129928
0.00696053
0.0122933
0.0125605
0.0127771
0.0129371
0.0130482
0.0131244
0.0131827
0.013226
0.0132527
0.0132559
0.0132246
0.013147
0.0130187
0.0128604
0.0127416
0.0127961
0.0131767
0.0138921
0.0145133
0.0136241
0.00730495
0.0124174
0.0126684
0.0128733
0.0130268
0.0131365
0.0132199
0.0132905
0.0133491
0.0133914
0.0134075
0.0133838
0.0133074
0.0131763
0.0130179
0.0129144
0.0130147
0.0134823
0.0143286
0.0151064
0.0142899
0.00765965
0.012549
0.0127861
0.0129837
0.013137
0.0132524
0.0133507
0.0134405
0.0135199
0.013581
0.0136106
0.0135924
0.013513
0.0133738
0.0132108
0.0131204
0.013267
0.0138213
0.0147971
0.0157306
0.014985
0.00802074
0.0126943
0.0129208
0.0131164
0.0132766
0.013406
0.0135271
0.0136428
0.0137475
0.0138292
0.013871
0.0138542
0.0137658
0.0136121
0.0134399
0.0133614
0.0135551
0.0141948
0.0152945
0.0163764
0.0156989
0.00838202
0.0128603
0.0130802
0.0132798
0.0134539
0.013608
0.0137598
0.0139072
0.0140401
0.014142
0.014192
0.0141699
0.0140646
0.0138893
0.0137036
0.0136369
0.0138795
0.0146011
0.0158124
0.0170252
0.0164146
0.00873456
0.0130555
0.0132736
0.0134845
0.0136822
0.0138703
0.0140596
0.0142426
0.014404
0.0145222
0.0145731
0.0145361
0.014404
0.0141993
0.0139971
0.0139442
0.0142378
0.0150352
0.0163351
0.0176448
0.0171068
0.00906656
0.0132901
0.0135122
0.0137425
0.0139739
0.0142045
0.0144366
0.0146562
0.0148423
0.0149687
0.0150091
0.0149444
0.0147737
0.0145321
0.0143122
0.0142776
0.014625
0.0154876
0.0168403
0.0182054
0.0177453
0.00936227
0.0135752
0.013809
0.0140694
0.0143434
0.0146225
0.0148992
0.0151519
0.0153537
0.0154749
0.0154887
0.0153799
0.0151579
0.014873
0.0146379
0.0146293
0.0150336
0.0159464
0.017306
0.0187152
0.0182934
0.00959575
0.0139241
0.0141794
0.0144852
0.0148071
0.0151361
0.0154536
0.0157296
0.0159314
0.0160274
0.0159934
0.0158217
0.0155356
0.0152046
0.0149624
0.0149907
0.0154541
0.0163983
0.0177514
0.0191629
0.0187428
0.00976695
0.0143513
0.014639
0.0149996
0.0153776
0.0157551
0.0161021
0.0163829
0.0165607
0.0166049
0.0164976
0.0162431
0.0158832
0.0155096
0.0152763
0.0153554
0.0158759
0.0168168
0.0181616
0.0195367
0.0190827
0.00985578
0.0148744
0.0152087
0.0156337
0.0160688
0.0164846
0.016841
0.0170972
0.0172179
0.0171775
0.0169689
0.0166137
0.0161778
0.0157768
0.01558
0.0157226
0.0162933
0.0172137
0.0185166
0.0198101
0.0192559
0.0098628
0.0155138
0.0159177
0.0164082
0.0168903
0.0173223
0.0176555
0.0178476
0.0178689
0.0177067
0.0173707
0.0169054
0.0164059
0.0160124
0.0158675
0.0160925
0.0166865
0.0175683
0.0187848
0.0199451
0.019226
0.00978675
0.0162918
0.0167848
0.0173353
0.0178417
0.018253
0.0185164
0.018594
0.0184686
0.018148
0.0176678
0.0171008
0.0165761
0.0162351
0.0161878
0.0164886
0.0170532
0.0178478
0.0189204
0.0198934
0.0189727
0.00963758
0.0172361
0.0178218
0.0184167
0.0189089
0.0192451
0.0193768
0.0192808
0.018962
0.018458
0.0178387
0.0172103
0.0167394
0.0164989
0.0165669
0.0169006
0.0173608
0.0179905
0.0188557
0.0195859
0.0183707
0.00938595
0.0183962
0.0190524
0.0196443
0.0200589
0.0202451
0.020171
0.0198398
0.0192928
0.0186087
0.0178973
0.017295
0.0169379
0.0168663
0.0170184
0.0172603
0.0175119
0.0178888
0.018495
0.0189285
0.0175376
0.00904011
0.0197656
0.0204639
0.0209808
0.0212285
0.0211726
0.0208137
0.0201988
0.0194222
0.0186135
0.0179179
0.017468
0.0173217
0.0173747
0.0174616
0.0174225
0.0173343
0.0173946
0.0177346
0.0178912
0.016482
0.00855222
0.0213587
0.0220198
0.0223524
0.0223178
0.0219179
0.0212078
0.0203012
0.0193603
0.0185601
0.0180469
0.0178698
0.0178906
0.0178814
0.0176228
0.0171221
0.0166083
0.0163785
0.0165082
0.0166267
0.0152944
0.00796119
0.0231506
0.0236319
0.0236343
0.0231822
0.0223472
0.0212682
0.0201468
0.0192068
0.0186268
0.0184561
0.0185029
0.0184543
0.0180149
0.0171362
0.0160739
0.0152163
0.0148498
0.0149121
0.0151528
0.0140215
0.00730355
0.0250354
0.0251393
0.0246327
0.0236346
0.0223314
0.0209753
0.0198465
0.0191715
0.0190377
0.0191552
0.0191023
0.0184575
0.0172061
0.0156477
0.0142215
0.0132573
0.0129516
0.0132046
0.013633
0.0127232
0.00660576
0.0268278
0.0262935
0.0250865
0.0234839
0.021821
0.0204554
0.0196481
0.0195511
0.0197985
0.0197378
0.018899
0.0172177
0.0151415
0.0132625
0.0118759
0.0111075
0.0109772
0.0115604
0.0121696
0.0114378
0.00587931
0.028168
0.0267165
0.0247139
0.0226386
0.020966
0.020008
0.0199438
0.0203099
0.020288
0.0192486
0.0170801
0.0144364
0.0121614
0.0105652
0.00959248
0.00919827
0.00937924
0.010139
0.0107843
0.0100752
0.00520367
0.0285344
0.0259919
0.0233699
0.0212726
0.0201348
0.0201437
0.0205725
0.0206056
0.0193728
0.0166443
0.0134029
0.0107733
0.00912671
0.00825007
0.00780734
0.00778185
0.00817937
0.00890354
0.00940646
0.00865177
0.00458775
0.027323
0.023891
0.021277
0.0198819
0.0199804
0.0204411
0.020437
0.0189823
0.0157135
0.0118791
0.00901706
0.00742276
0.0068018
0.00665425
0.00662668
0.00677443
0.00720727
0.00776624
0.00804508
0.00724194
0.00400057
0.0241811
0.020711
0.0191694
0.0191811
0.0195754
0.0194089
0.0175006
0.0138938
0.00980023
0.00679145
0.00562117
0.00535758
0.0054424
0.00560477
0.00575127
0.00596261
0.00630528
0.00665493
0.00671622
0.00592951
0.00342091
0.0193904
0.0174221
0.0172523
0.0173949
0.0167034
0.0144426
0.0103667
0.00705118
0.00485522
0.00393329
0.00388966
0.00411726
0.00438929
0.00462963
0.00484597
0.00507289
0.00532998
0.00553272
0.0054893
0.00481494
0.00282272
0.0141689
0.0131674
0.0131033
0.0115729
0.00897662
0.00653803
0.00431046
0.00283066
0.00229892
0.00232594
0.00255947
0.00284655
0.00313687
0.00341353
0.00368028
0.00394869
0.00421416
0.00441968
0.00442656
0.00390209
0.00216154
0.00820784
0.00261789
0.00244649
0.00226596
0.00187137
0.00141149
0.00102215
0.000902517
0.000960444
0.00108605
0.00123215
0.00138416
0.00153929
0.00170006
0.00187374
0.00207382
0.00226746
0.00240395
0.00241162
0.0021635
0.00131738
0.0104604
0.0207397
0.0246669
0.0282799
0.0319532
0.035333
0.0380998
0.0401391
0.0414727
0.042198
0.0424524
0.0423949
0.0421889
0.0419813
0.0418856
0.0419703
0.0422561
0.0427223
0.0433202
0.0109296
0.0218885
0.0262077
0.0299396
0.0334886
0.0365413
0.0388532
0.0403527
0.0410996
0.0412287
0.0409166
0.0403585
0.0397442
0.0392278
0.0389023
0.0387867
0.0388315
0.0389391
0.0389916
0.0113383
0.0228644
0.0275189
0.0312926
0.0346396
0.0373146
0.0391333
0.0400694
0.0402263
0.039782
0.0389543
0.0379712
0.0370296
0.036254
0.0356684
0.0351966
0.0346916
0.0339825
0.0329208
0.0116784
0.0236524
0.0286004
0.0323414
0.0354273
0.0376917
0.038998
0.0393703
0.0389607
0.0379944
0.0367274
0.0354016
0.0341882
0.0331382
0.0321721
0.0311153
0.0297674
0.0279782
0.0256994
0.0119531
0.0242677
0.0294473
0.0330862
0.035884
0.0377197
0.038514
0.0383453
0.0374182
0.0360051
0.0343878
0.0327942
0.0313308
0.0299487
0.028474
0.0266969
0.0244789
0.0218243
0.0188962
0.0121673
0.0247172
0.030049
0.0335556
0.036047
0.037452
0.0377542
0.0370888
0.0357156
0.0339463
0.032068
0.0302624
0.028545
0.0267734
0.0247405
0.022311
0.0195219
0.0165906
0.0138392
0.0123252
0.0250122
0.030428
0.0337812
0.0359584
0.0369465
0.0367937
0.0356945
0.0339612
0.0319313
0.0298703
0.0278865
0.025901
0.0237227
0.0212035
0.0183783
0.0154856
0.0128656
0.0107952
0.012431
0.0251686
0.0306128
0.0337968
0.0356633
0.036262
0.0357058
0.0342485
0.0322477
0.030047
0.0278632
0.0257162
0.0234561
0.0209131
0.018083
0.0151936
0.0125972
0.0105783
0.00922682
0.0124892
0.0252028
0.0306312
0.0336373
0.0352071
0.0354547
0.0345569
0.0328241
0.0306464
0.0283508
0.0260834
0.023777
0.0212549
0.0184425
0.0155172
0.0128385
0.0107307
0.00931084
0.00850035
0.0125048
0.0251317
0.0305098
0.0333369
0.0346327
0.0345755
0.0334038
0.0314783
0.0292056
0.026873
0.0245423
0.0220766
0.0193274
0.0163674
0.0135348
0.0112157
0.00960467
0.00865547
0.00820205
0.0124826
0.0249714
0.0302739
0.0329274
0.0339784
0.0336676
0.0322915
0.0302513
0.0279523
0.0256222
0.0232338
0.0206108
0.0176844
0.0146947
0.0120765
0.0101498
0.00895548
0.00834083
0.00811801
0.0124276
0.0247373
0.0299469
0.0324377
0.0332774
0.0327661
0.0312526
0.0291675
0.026896
0.0245907
0.0221412
0.0193667
0.0163199
0.0133921
0.0110406
0.00947114
0.00859706
0.00821534
0.00814384
0.0123444
0.0244436
0.0295497
0.0318925
0.0325566
0.0318971
0.0303085
0.0282377
0.0260329
0.0237615
0.0212421
0.0183269
0.0152127
0.012404
0.0103224
0.00905084
0.00841531
0.00819746
0.00822898
0.0122374
0.0241028
0.0291004
0.0313128
0.0318372
0.0310791
0.0294706
0.0274618
0.0253495
0.0231106
0.020511
0.0174695
0.0143311
0.0116695
0.00983482
0.00880139
0.00834401
0.00824425
0.00834926
0.0121106
0.0237259
0.0286145
0.0307152
0.0311347
0.0303234
0.0287423
0.0268323
0.0248266
0.0226107
0.019911
0.0167657
0.0136411
0.0111343
0.00951351
0.00866727
0.00834485
0.00833299
0.00849328
0.0119677
0.0233225
0.0281047
0.0301128
0.0304601
0.0296357
0.028121
0.0263361
0.0244419
0.0222086
0.0193952
0.0161871
0.013111
0.0107539
0.00931294
0.00861467
0.00839604
0.00845172
0.00865572
0.011812
0.0229004
0.0275812
0.0295154
0.0298202
0.0290174
0.0276003
0.0259573
0.0241643
0.0218827
0.018959
0.0157082
0.0127064
0.0104939
0.00920263
0.00862192
0.00848466
0.00859402
0.00883397
0.0116463
0.0224663
0.0270521
0.0289302
0.0292189
0.028467
0.0271706
0.0256783
0.0239509
0.0216163
0.0185955
0.0153171
0.0124051
0.0103284
0.00916148
0.00867509
0.00860295
0.00875613
0.00902637
0.0114731
0.0220255
0.0265236
0.0283619
0.0286576
0.0279804
0.0268211
0.0254796
0.0237925
0.0214034
0.0182982
0.0150055
0.0121897
0.0102382
0.00917461
0.00876477
0.0087456
0.0089352
0.0092312
0.0112944
0.0215822
0.0260003
0.0278136
0.0281361
0.0275522
0.0265399
0.0253439
0.0236812
0.0212389
0.0180615
0.0147654
0.0120456
0.0102075
0.0092313
0.00888384
0.00890781
0.00912788
0.00944581
0.011112
0.0211397
0.0254856
0.027287
0.0276526
0.0271759
0.0263156
0.0252479
0.0236079
0.0211182
0.0178806
0.0145911
0.0119561
0.0102215
0.00932167
0.00902476
0.00908348
0.00932916
0.00966596
0.0109273
0.0207007
0.0249818
0.0267828
0.0272048
0.0268448
0.0261367
0.0251808
0.0235665
0.0210374
0.0177512
0.0144751
0.0119138
0.0102707
0.00943603
0.00917867
0.0092649
0.0095325
0.00988593
0.0107416
0.0202671
0.0244904
0.0263008
0.0267898
0.0265523
0.0259935
0.025138
0.0235531
0.0209926
0.0176697
0.0144119
0.0119148
0.0103453
0.00956285
0.0093373
0.0094462
0.00973203
0.0101003
0.0105559
0.0198402
0.0240124
0.0258404
0.0264043
0.0262924
0.0258782
0.0251154
0.0235642
0.0209815
0.0176328
0.0143957
0.0119536
0.0104424
0.00970061
0.00950057
0.00962777
0.00992816
0.0103074
0.0103708
0.0194212
0.0235482
0.0254007
0.0260451
0.0260595
0.0257842
0.0251095
0.023597
0.021002
0.0176374
0.014422
0.0120256
0.0105593
0.00984834
0.00966788
0.00980919
0.0101207
0.0105076
0.010187
0.0190108
0.023098
0.0249803
0.0257091
0.0258486
0.0257063
0.0251172
0.023649
0.021052
0.0176808
0.0144867
0.0121272
0.0106942
0.0100053
0.00983876
0.00999013
0.0103092
0.0107008
0.010005
0.0186092
0.0226614
0.0245779
0.0253933
0.0256555
0.0256401
0.0251357
0.023718
0.0211295
0.0177601
0.0145866
0.0122558
0.0108457
0.010171
0.0100129
0.0101703
0.0104936
0.0108868
0.00982511
0.0182169
0.0222383
0.0241922
0.025095
0.0254765
0.0255822
0.0251626
0.0238019
0.0212329
0.0178732
0.014719
0.0124094
0.0110131
0.0103451
0.0101903
0.0103494
0.0106735
0.011065
0.00964737
0.0178339
0.0218281
0.0238217
0.0248118
0.0253084
0.0255294
0.0251956
0.0238986
0.0213603
0.0180179
0.0148817
0.0125864
0.0111957
0.0105277
0.0103707
0.0105274
0.0108485
0.0112351
0.00947195
0.0174597
0.0214303
0.0234651
0.0245413
0.0251486
0.0254794
0.0252327
0.0240062
0.0215101
0.0181924
0.015073
0.012786
0.0113934
0.0107189
0.0105547
0.0107046
0.0110188
0.0113973
0.00929948
0.0170945
0.021044
0.0231212
0.0242818
0.0249948
0.02543
0.0252716
0.0241226
0.0216806
0.0183955
0.0152921
0.0130079
0.0116068
0.0109196
0.010743
0.0108819
0.0111856
0.0115533
0.00912971
0.016739
0.0206689
0.022789
0.0240314
0.0248448
0.0253775
0.0253068
0.0242422
0.0218715
0.0186312
0.0155402
0.0132532
0.0118374
0.0111318
0.0109386
0.0110626
0.0113515
0.0117026
0.00896636
0.0163916
0.0203037
0.0224667
0.0237882
0.0246967
0.0253207
0.0253368
0.0243605
0.0220732
0.0188908
0.0158211
0.0135283
0.0120915
0.0113622
0.0111458
0.0112481
0.0115164
0.011847
0.00880867
0.0160523
0.019948
0.0221532
0.0235509
0.0245492
0.0252587
0.0253605
0.0244761
0.0222827
0.0191725
0.0161321
0.0138333
0.0123716
0.0116126
0.0113663
0.0114405
0.0116829
0.0119898
0.00865597
0.0157209
0.0196012
0.0218476
0.0233184
0.0244011
0.0251907
0.025377
0.0245877
0.0224984
0.0194739
0.0164714
0.0141677
0.0126785
0.0118843
0.011602
0.0116423
0.0118543
0.012135
0.0085077
0.0153976
0.0192628
0.0215493
0.0230897
0.0242516
0.0251162
0.0253856
0.024694
0.0227182
0.0197928
0.0168375
0.0145314
0.0130128
0.0121795
0.0118557
0.0118571
0.0120349
0.0122875
0.00836339
0.015082
0.0189323
0.0212576
0.0228639
0.0240999
0.0250349
0.0253856
0.024794
0.0229403
0.0201269
0.0172284
0.0149239
0.0133758
0.0125002
0.0121309
0.0120891
0.0122297
0.012453
0.00822261
0.0147735
0.0186092
0.0209718
0.0226405
0.0239457
0.0249466
0.0253767
0.0248866
0.0231628
0.0204739
0.0176426
0.0153447
0.0137685
0.0128491
0.0124313
0.0123433
0.0124445
0.0126376
0.00808499
0.0144717
0.018293
0.0206915
0.0224189
0.0237886
0.0248515
0.0253586
0.0249709
0.0233837
0.0208314
0.0180786
0.0157934
0.0141924
0.0132293
0.0127616
0.0126254
0.0126858
0.0128486
0.00795019
0.0141765
0.0179835
0.0204162
0.0221987
0.0236286
0.0247495
0.0253311
0.0250462
0.023601
0.021195
0.0185346
0.0162707
0.0146494
0.0136444
0.0131265
0.0129415
0.0129604
0.013095
0.00781789
0.0138874
0.0176802
0.0201455
0.0219797
0.0234655
0.024641
0.0252944
0.0251119
0.0238128
0.0215618
0.0190076
0.0167764
0.0151406
0.0140977
0.0135313
0.0132978
0.0132765
0.0133868
0.00768784
0.0136044
0.0173828
0.0198791
0.0217617
0.0232996
0.0245265
0.0252488
0.0251675
0.0240175
0.0219293
0.0194934
0.0173094
0.0156682
0.0145925
0.0139807
0.0137005
0.0136439
0.0137353
0.00755979
0.013327
0.0170911
0.0196166
0.0215446
0.0231312
0.0244065
0.0251945
0.025213
0.0242135
0.0222949
0.0199894
0.0178673
0.0162324
0.0151316
0.0144789
0.014158
0.0140727
0.0141528
0.00743354
0.0130552
0.0168046
0.0193579
0.0213285
0.0229606
0.0242817
0.0251324
0.0252486
0.0243998
0.0226562
0.0204929
0.0184478
0.0168331
0.0157168
0.0150304
0.0146782
0.0145737
0.0146535
0.0073089
0.0127887
0.0165233
0.0191029
0.0211137
0.0227885
0.024153
0.0250632
0.0252747
0.0245756
0.0230112
0.0210011
0.0190489
0.01747
0.016348
0.0156407
0.0152696
0.0151592
0.0152534
0.00718573
0.0125274
0.0162469
0.0188514
0.0209003
0.0226155
0.0240214
0.0249879
0.0252922
0.024741
0.0233584
0.0215118
0.0196682
0.018141
0.017028
0.0163154
0.0159418
0.0158431
0.0159711
0.00706387
0.012271
0.0159753
0.0186036
0.0206887
0.0224425
0.023888
0.024908
0.0253024
0.0248964
0.023697
0.0220232
0.0203048
0.0188425
0.0177586
0.017061
0.0167059
0.0166419
0.0168293
0.00694324
0.0120196
0.0157084
0.0183594
0.0204795
0.0222704
0.0237543
0.0248248
0.025307
0.025043
0.0240271
0.0225341
0.0209556
0.0195772
0.0185442
0.017886
0.0175761
0.0175765
0.0178572
0.00682375
0.0117729
0.015446
0.0181191
0.0202731
0.0221002
0.0236216
0.0247401
0.025308
0.0251828
0.02435
0.0230454
0.0216172
0.0203458
0.0193906
0.0188016
0.0185706
0.0186733
0.0190858
0.00670535
0.011531
0.0151882
0.0178827
0.0200701
0.0219331
0.0234916
0.024656
0.025308
0.0253185
0.0246677
0.0235575
0.0222935
0.021153
0.0203064
0.0198231
0.019714
0.019968
0.0205716
0.00658801
0.0112938
0.014935
0.0176505
0.019871
0.0217699
0.0233657
0.0245744
0.0253095
0.0254533
0.0249839
0.0240713
0.0229883
0.0220058
0.0213041
0.0209721
0.0210387
0.0215025
0.0223384
0.00647173
0.0110614
0.0146865
0.0174227
0.0196764
0.0216116
0.0232447
0.0244974
0.0253155
0.0255911
0.0253028
0.0245916
0.0237082
0.0229144
0.0224017
0.0222778
0.0225884
0.023337
0.0243348
0.00635654
0.0108337
0.0144427
0.0171995
0.0194866
0.0214576
0.0231262
0.0244271
0.0253287
0.0257356
0.0256288
0.0251261
0.0244624
0.0238936
0.0236237
0.0237795
0.0244164
0.0255298
0.0265077
0.00624251
0.0106108
0.0142037
0.0169811
0.0193019
0.0213087
0.0230118
0.0243649
0.0253517
0.0258909
0.0259663
0.0256824
0.0252626
0.0249629
0.0250032
0.0255272
0.0265747
0.0279165
0.0286026
0.00612972
0.0103928
0.0139698
0.0167678
0.0191225
0.0211651
0.022903
0.024312
0.0253869
0.0260604
0.0263209
0.0262689
0.0261227
0.0261468
0.0265822
0.0275793
0.0291615
0.0303613
0.0302093
0.00601828
0.0101799
0.0137411
0.0165597
0.0189485
0.0210272
0.0228007
0.0242696
0.0254362
0.0262472
0.0266986
0.0268948
0.0270587
0.0274746