/*--------------------------------*- C++ -*----------------------------------*\
| =========                 |                                                 |
| \\      /  F ield         | OpenFOAM: The Open Source CFD Toolbox           |
|  \\    /   O peration     | Version:  v2012                                 |
|   \\  /    A nd           | Website:  www.openfoam.com                      |
|    \\/     M anipulation  |                                                 |
\*---------------------------------------------------------------------------*/
FoamFile
{
    version     2.0;
    format      ascii;
    class       volScalarField;
    location    "622";
    object      nut;
}
// * * * * * * * * * * * * * * * * * * * * * * * * * * * * * * * * * * * * * //

dimensions      [0 2 -1 0 0 0 0];


internalField   nonuniform List<scalar> 
6057
(
0.000484495
0.000503329
0.000523912
0.000546489
0.00057137
0.00059895
0.000629727
0.000664342
0.000703632
0.000748711
0.000801093
0.000862894
0.000937153
0.00102839
0.00114357
0.00129397
0.00149879
0.0017928
0.00224362
0.00299408
0.00267529
0.00277317
0.00287848
0.00299235
0.00311591
0.00325034
0.00339718
0.00355839
0.00373647
0.00393464
0.00415717
0.00440985
0.00470071
0.00504129
0.00544874
0.00594966
0.00658756
0.00743854
0.00864941
0.0105509
0.00455404
0.00471033
0.00487754
0.00505678
0.00524932
0.00545685
0.00568121
0.00592458
0.00618974
0.0064801
0.00680006
0.00715522
0.00755293
0.00800279
0.00851741
0.00911304
0.00980955
0.0106278
0.0115791
0.0126305
0.00573929
0.00592928
0.00613161
0.00634733
0.00657767
0.00682402
0.00708797
0.00737131
0.00767605
0.0080044
0.00835888
0.00874226
0.00915752
0.00960768
0.0100954
0.0106223
0.0111871
0.0117827
0.012392
0.0129839
0.00630351
0.00650913
0.00672739
0.00695929
0.00720595
0.00746857
0.00774841
0.00804673
0.00836476
0.00870364
0.00906419
0.00944677
0.00985095
0.010275
0.0107156
0.0111668
0.0116201
0.0120653
0.0124957
0.0129216
0.00629984
0.00650657
0.0067256
0.00695804
0.00720508
0.00746796
0.00774798
0.00804643
0.00836457
0.00870351
0.0090641
0.00944672
0.00985091
0.010275
0.0107156
0.0111668
0.0116201
0.0120653
0.0124957
0.0129216
0.00572827
0.00592176
0.00612642
0.00634376
0.00657521
0.00682236
0.00708686
0.00737059
0.00767557
0.00800408
0.00835867
0.00874213
0.00915743
0.00960763
0.0100954
0.0106223
0.0111871
0.0117827
0.012392
0.0129839
0.00453599
0.0046987
0.00486972
0.00505156
0.00524589
0.00545459
0.0056797
0.00592358
0.00618906
0.00647965
0.00679976
0.00715503
0.0075528
0.0080027
0.00851735
0.00911301
0.00980953
0.0106278
0.0115791
0.0126305
0.00265407
0.00276132
0.00287088
0.00298758
0.00311278
0.00324826
0.00339579
0.00355746
0.00373585
0.00393423
0.0041569
0.00440966
0.00470058
0.00504121
0.00544868
0.00594963
0.00658754
0.00743853
0.00864941
0.0105509
0.000483783
0.000502896
0.000523629
0.000546299
0.00057124
0.00059886
0.000629665
0.000664299
0.000703602
0.00074869
0.000801079
0.000862885
0.000937147
0.00102838
0.00114356
0.00129397
0.00149879
0.0017928
0.00224362
0.00299408
0.000271369
0.000278685
0.00028598
0.000293292
0.000300659
0.000308118
0.000315712
0.000323485
0.000331484
0.000339761
0.00034837
0.00035737
0.000366824
0.000376802
0.000387375
0.000398595
0.000410509
0.000423222
0.000436847
0.000451507
0.000467339
0.0012769
0.00134521
0.00141249
0.00147865
0.00154357
0.00160716
0.00166944
0.00173049
0.00179048
0.00184963
0.00190828
0.00196682
0.00202574
0.00208558
0.00214695
0.00221016
0.00227656
0.00234668
0.00242106
0.00250025
0.00258478
0.00232995
0.00243936
0.00254557
0.00264875
0.00274914
0.00284702
0.00294276
0.00303679
0.00312962
0.00322181
0.00331397
0.00340681
0.00350106
0.00359755
0.00369676
0.00380018
0.00390871
0.00402309
0.00414405
0.00427233
0.0044087
0.00311593
0.00323547
0.00335121
0.00346385
0.00357404
0.00368242
0.00378961
0.00389626
0.00400303
0.00411056
0.00421954
0.00433066
0.00444468
0.00456237
0.00468449
0.00481231
0.00494653
0.00508784
0.00523698
0.00539471
0.00556181
0.0035961
0.00370423
0.00380943
0.00391278
0.00401522
0.00411759
0.00422067
0.00432519
0.00443182
0.00454121
0.00465398
0.00477073
0.00489209
0.00501866
0.00515154
0.0052914
0.0054386
0.00559353
0.00575673
0.00592892
0.00611083
0.00379068
0.00387095
0.00394972
0.00402831
0.00410786
0.00418934
0.00427368
0.00436166
0.00445404
0.00455145
0.0046545
0.00476373
0.00487964
0.00500298
0.00513508
0.00527602
0.00542551
0.00558299
0.00574834
0.00592237
0.00610583
0.00373375
0.0037724
0.00381071
0.00385012
0.00389186
0.00393704
0.0039867
0.00404176
0.00410306
0.00417136
0.0042473
0.00433146
0.00442443
0.0045275
0.00464266
0.00477054
0.00491161
0.00505962
0.00521397
0.00537624
0.00554717
0.00348036
0.00346965
0.00345922
0.00345033
0.00344406
0.00344143
0.0034434
0.00345091
0.00346492
0.00348628
0.00351566
0.0035536
0.00360038
0.00365612
0.00372313
0.00380192
0.00389151
0.00399936
0.00412182
0.00425113
0.00438827
0.0031277
0.00307278
0.00301774
0.00296284
0.00290828
0.00285428
0.00280118
0.00274948
0.00269983
0.00265293
0.00260955
0.00257222
0.00254152
0.00251622
0.00249335
0.00247245
0.00245504
0.00245164
0.00247314
0.00252347
0.00258635
0.00278191
0.00270046
0.00261796
0.00253328
0.00244517
0.00235233
0.0022534
0.00214696
0.0020316
0.00190615
0.00176997
0.00162338
0.00146693
0.00130161
0.00114179
0.000994759
0.000865272
0.00075576
0.000666834
0.000593921
0.000531935
7.19843e-05
6.7585e-05
6.84279e-05
7.79546e-05
0.000107081
0.000110306
0.000104349
0.000157109
0.000174775
0.000186078
0.000196456
0.000206149
0.000215313
0.000224057
0.000232464
0.000240598
0.000248511
0.000256251
0.000263857
0.000120884
0.00022479
0.000299947
0.0003163
0.000320576
0.000353861
0.000399655
0.000456842
0.000520803
0.000585663
0.000651458
0.00071825
0.000786028
0.000854745
0.000924292
0.000994501
0.00106515
0.00113595
0.00120664
0.000149271
0.000440601
0.00046651
0.000475339
0.000513484
0.000581016
0.000682343
0.000805591
0.00093657
0.00106959
0.00120305
0.00133595
0.00146776
0.00159807
0.00172653
0.00185279
0.00197653
0.00209746
0.00221535
0.000182108
0.000568687
0.00061143
0.000646766
0.000719269
0.000841562
0.0010053
0.00119051
0.0013815
0.0015714
0.00175667
0.00193552
0.00210721
0.0022715
0.00242847
0.00257836
0.00272157
0.00285856
0.00298987
0.00021243
0.000686747
0.000728326
0.000831343
0.000952187
0.00113048
0.00134833
0.00158202
0.00181571
0.00204101
0.0022533
0.00245082
0.00263344
0.00280192
0.00295754
0.0031018
0.00323628
0.00336254
0.00348208
0.00023429
0.000708982
0.000848572
0.00102923
0.00120418
0.00143204
0.0016903
0.00195494
0.0022103
0.00244731
0.00266154
0.00285214
0.00302031
0.00316839
0.00329921
0.00341571
0.0035207
0.00361675
0.00370613
0.000250095
0.000763296
0.000979424
0.00123637
0.00146071
0.00172974
0.00201342
0.00229082
0.00254724
0.00277422
0.00296864
0.00313124
0.00326504
0.00337413
0.00346289
0.00353556
0.00359595
0.00364735
0.00369254
0.000263044
0.00084918
0.00111873
0.00144569
0.00171067
0.00200851
0.00230475
0.00257834
0.00281797
0.00301709
0.00317468
0.00329362
0.00337894
0.0034365
0.00347214
0.00349118
0.00349816
0.00349682
0.00349012
0.000273706
0.000952024
0.00125968
0.00164997
0.00194557
0.00225903
0.00255541
0.00281231
0.00302112
0.00317937
0.00328872
0.0033546
0.00338429
0.00338556
0.00336572
0.0033311
0.00328676
0.00323648
0.0031829
0.000282452
0.00105745
0.00139761
0.00183708
0.00215992
0.00247689
0.00276104
0.00299178
0.00316025
0.00326951
0.00332495
0.00333498
0.00330951
0.00325844
0.0031906
0.00311313
0.00303116
0.00294783
0.00286465
0.00249193
0.00240287
0.00231363
0.0022235
0.00213228
0.00204009
0.00194723
0.00185396
0.00176026
0.00166548
0.00156724
0.00146731
0.00136474
0.00125687
0.00113952
0.00100526
0.000833866
0.000536379
0.000340242
0.000229224
0.000137825
0.00223139
0.00212347
0.00201101
0.00189413
0.00177383
0.00165135
0.00152873
0.00140794
0.00129087
0.00118338
0.00108817
0.000995218
0.000898406
0.000803684
0.000715124
0.000634987
0.000548788
0.000428066
0.00032059
0.000223265
0.000101449
0.00195659
0.00181542
0.00166897
0.0015219
0.00138033
0.00125119
0.00114198
0.00106003
0.00100663
0.000964335
0.000929181
0.000892149
0.000849798
0.000801752
0.000744736
0.000676527
0.000596609
0.000481128
0.00036853
0.000246639
8.95242e-05
0.00168829
0.00153442
0.00139354
0.00127745
0.00119708
0.00115903
0.00116072
0.00117771
0.00119388
0.00120034
0.00119194
0.00116559
0.0011182
0.00104586
0.000949077
0.000797526
0.00065873
0.00052777
0.00040586
0.00024788
9.5107e-05
0.00149953
0.00139148
0.00132987
0.00132158
0.00135936
0.00142214
0.00147679
0.00151065
0.00152093
0.00150923
0.00147535
0.00141863
0.00133832
0.00122415
0.00104201
0.00089071
0.000750547
0.000612387
0.000438945
0.000262832
0.000101468
0.00145572
0.00144469
0.00149199
0.00157771
0.00167034
0.00173964
0.00177597
0.00178831
0.0017777
0.00174615
0.00169328
0.00161805
0.00151931
0.00138173
0.00118879
0.00102402
0.000867238
0.000690604
0.000483113
0.000284001
0.000107606
0.00155861
0.00163985
0.00175303
0.00186141
0.0019431
0.00199039
0.00200897
0.00200674
0.00198523
0.00194421
0.00188234
0.00179807
0.00168965
0.00155448
0.00134383
0.00116014
0.000986199
0.000770209
0.000534309
0.000308509
0.000113382
0.00174846
0.00187991
0.0020049
0.00209994
0.00216161
0.0021947
0.00220488
0.00219665
0.0021703
0.00212452
0.00205771
0.00196797
0.00185315
0.00171102
0.00150065
0.00129837
0.00110749
0.000855414
0.000590359
0.00033527
0.0001188
0.00196313
0.00210604
0.00221966
0.00229898
0.00234894
0.00237545
0.00238208
0.00237109
0.00234166
0.00229243
0.00222175
0.00212766
0.00200784
0.00185958
0.00165914
0.00143857
0.00122014
0.000943694
0.000649818
0.00036378
0.000123898
0.00216777
0.00230409
0.00240525
0.00247481
0.0025192
0.00254294
0.00254787
0.00253456
0.0025021
0.00244923
0.00237449
0.00227609
0.00215171
0.00199839
0.00181257
0.00158023
0.00132995
0.0010331
0.00071162
0.000393754
0.000128724
0.00235218
0.00247957
0.00257244
0.00263716
0.00267933
0.00270199
0.00270532
0.00268936
0.00265325
0.00259598
0.00251641
0.00241312
0.00228405
0.00212618
0.00193542
0.00170684
0.00143593
0.00112201
0.000774915
0.000425004
0.00013332
0.00251893
0.00263973
0.00272838
0.00279141
0.00283321
0.00285516
0.0028566
0.00283736
0.00279674
0.00273405
0.00264863
0.00253953
0.00240517
0.00224277
0.00204798
0.00181483
0.00153658
0.00120914
0.000838995
0.000457393
0.000137726
0.00267268
0.00279002
0.00287745
0.0029409
0.00298313
0.00300432
0.00300346
0.00298026
0.00293422
0.00286504
0.00277258
0.00265655
0.00251597
0.00234856
0.00215008
0.00191383
0.00163094
0.00129345
0.000903257
0.000490811
0.000141976
0.00281747
0.00293405
0.00302257
0.00308766
0.00313059
0.0031509
0.0031473
0.00311946
0.0030671
0.00299034
0.00288965
0.00276542
0.00261748
0.00244429
0.00224203
0.00200362
0.00171834
0.00137415
0.000967186
0.000525166
0.000146101
0.00295628
0.0030744
0.00316554
0.00323282
0.00327657
0.00329582
0.00328905
0.00325591
0.00319638
0.00311102
0.0030009
0.00286722
0.00271071
0.00253078
0.00232434
0.00208433
0.00179848
0.00145068
0.00103034
0.000560372
0.000150128
0.00309138
0.00321264
0.00330717
0.00337695
0.00342153
0.00343949
0.00342909
0.00339005
0.00332256
0.00322764
0.003107
0.00296268
0.00279644
0.00260879
0.00239763
0.00215626
0.00187127
0.00152263
0.00109234
0.000596349
0.000154082
0.00322395
0.00334937
0.00344773
0.00352012
0.00356543
0.0035818
0.00356733
0.00352179
0.00344563
0.0033403
0.00320818
0.00305219
0.00287519
0.00267893
0.00246248
0.00221982
0.00193681
0.00158978
0.00115288
0.000633013
0.000157987
0.00335447
0.00348461
0.003587
0.00366194
0.00370777
0.00372218
0.00370319
0.00365062
0.00356515
0.00344869
0.00330429
0.0031358
0.00294722
0.00274163
0.00251942
0.00227547
0.00199531
0.00165201
0.00121167
0.000670273
0.000161865
0.00348285
0.00361796
0.00372431
0.0038016
0.00384762
0.00385967
0.00383572
0.00377562
0.00368031
0.00355216
0.00339489
0.00321329
0.00301258
0.00279716
0.00256884
0.00232363
0.00204704
0.00170932
0.00126848
0.000708022
0.000165739
0.00360843
0.00374853
0.00385864
0.00393794
0.00398377
0.00399302
0.00396365
0.00389561
0.00379007
0.00364981
0.00347928
0.00328425
0.0030711
0.00284564
0.0026111
0.00236473
0.00209233
0.00176176
0.00132313
0.000746132
0.000169632
0.00373004
0.00387501
0.00398858
0.00406953
0.00411477
0.00412075
0.00408556
0.00400924
0.00389316
0.00374058
0.00355664
0.00334809
0.00312253
0.00288709
0.00264642
0.00239913
0.00213154
0.00180946
0.00137546
0.000784448
0.000173568
0.00384594
0.00399573
0.0041125
0.00419475
0.00423908
0.00424125
0.00419989
0.00411503
0.00398826
0.0038233
0.00362603
0.00340419
0.00316653
0.00292147
0.00267503
0.0024272
0.00216499
0.00185259
0.00142531
0.000822782
0.000177573
0.00391492
0.00410865
0.0042285
0.00431174
0.00435477
0.00435283
0.00430505
0.00421149
0.00407401
0.00389679
0.00368649
0.00345185
0.00320271
0.00294869
0.0026971
0.00244926
0.00219306
0.00189132
0.00147257
0.000860919
0.000181675
0.00383802
0.00410436
0.00433452
0.00441857
0.00445996
0.00445381
0.00439949
0.00429718
0.00414906
0.00395988
0.00373711
0.00349043
0.00323075
0.00296872
0.0027128
0.00246566
0.00221609
0.00192586
0.00151711
0.000898539
0.00018591
0.00376307
0.0040238
0.00427912
0.00451109
0.00455301
0.00454265
0.00448174
0.0043707
0.00421214
0.00401148
0.003777
0.00351935
0.00325035
0.00298153
0.00272234
0.00247671
0.00223442
0.00195642
0.00155877
0.000935232
0.000190315
0.00369653
0.00395161
0.00419954
0.00443717
0.00462473
0.00461792
0.00455046
0.00443077
0.00426208
0.00405057
0.00380542
0.00353813
0.00326131
0.00298715
0.00272593
0.00248275
0.0022484
0.00198317
0.00159739
0.000970273
0.00019494
0.00363994
0.00389112
0.00413689
0.0043702
0.00456878
0.00467839
0.00460445
0.00447623
0.00429781
0.00407631
0.00382176
0.00354644
0.00326355
0.00298573
0.00272384
0.00248415
0.00225837
0.0020063
0.00163281
0.00100287
0.000199845
0.00359733
0.00384588
0.00409205
0.00433082
0.00453341
0.00465468
0.0046427
0.00450601
0.00431843
0.00408802
0.00382563
0.00354414
0.00325714
0.00297746
0.0027164
0.00248128
0.00226464
0.00202591
0.00166608
0.00103481
0.000204944
0.00356961
0.00381781
0.0040667
0.00431569
0.00453235
0.00465995
0.00466461
0.00451926
0.00432325
0.0040853
0.00381689
0.00353131
0.00324228
0.00296289
0.00270471
0.00247523
0.00226851
0.0020441
0.00169871
0.00106738
0.000210137
0.00355474
0.00380424
0.00405835
0.00432114
0.00455682
0.00470148
0.0046695
0.00451676
0.00431382
0.00407014
0.0037977
0.00350997
0.00322067
0.00294288
0.00268845
0.00246563
0.0022697
0.00206047
0.00173082
0.00110066
0.000215445
0.00354903
0.00380008
0.00406045
0.00433972
0.00459774
0.00476364
0.00465995
0.00450028
0.00429153
0.00404358
0.00376869
0.00348041
0.00319229
0.00291737
0.00266777
0.0024526
0.00226828
0.00207497
0.00176229
0.00113483
0.000220857
0.00354785
0.00380023
0.00406868
0.00436968
0.00465395
0.00474753
0.00463676
0.00447093
0.00425741
0.00400647
0.00373059
0.00344317
0.00315756
0.00288666
0.00264294
0.00243633
0.00226437
0.00208758
0.00179279
0.00116972
0.000226365
0.00354859
0.0038019
0.00408077
0.00440712
0.00472368
0.00471842
0.0046009
0.00442961
0.00421232
0.00395965
0.00368409
0.00339883
0.00311689
0.00285108
0.00261421
0.00241701
0.00225802
0.00209818
0.00182218
0.00120516
0.000231964
0.00354962
0.00380356
0.00409633
0.00444915
0.00474345
0.00467693
0.00455315
0.00437714
0.00415709
0.00390385
0.00362984
0.00334789
0.00307066
0.00281087
0.00258175
0.00239478
0.00224924
0.00210657
0.00185004
0.00124097
0.000237634
0.00355073
0.00380619
0.00411655
0.004495
0.00469711
0.00462366
0.0044942
0.00431426
0.00409245
0.00383977
0.0035684
0.00329073
0.00301907
0.00276616
0.00254565
0.00236969
0.00223799
0.0021124
0.00187575
0.00127674
0.000243334
0.00355169
0.00381041
0.00414021
0.00454687
0.00463947
0.00455941
0.00442482
0.00424173
0.0040191
0.00376794
0.00350011
0.00322752
0.00296217
0.00271692
0.00250591
0.00234173
0.00222408
0.00211516
0.00189842
0.00131182
0.000249004
0.00355025
0.00381362
0.0041618
0.00459032
0.00457136
0.00448503
0.00434581
0.00416026
0.00393761
0.00368875
0.00342513
0.0031582
0.00289977
0.00266296
0.0024624
0.00231079
0.00220723
0.00211411
0.00191672
0.00134529
0.00025455
0.003539
0.00381356
0.00417585
0.00453102
0.00449389
0.00440152
0.00425807
0.00407059
0.00384848
0.00360241
0.00334337
0.00308245
0.00283148
0.00260394
0.00241488
0.00227666
0.00218701
0.00210818
0.00192877
0.00137591
0.000259848
0.00352331
0.0038049
0.00418075
0.00445281
0.00440838
0.00431006
0.00416258
0.00397342
0.00375205
0.00350885
0.00325443
0.00299972
0.00275671
0.00253939
0.00236304
0.00223904
0.00216284
0.00209587
0.00184648
0.00140217
0.000264741
0.00350825
0.00379385
0.00416754
0.00436831
0.0043164
0.00421199
0.00406034
0.00386932
0.0036484
0.00340772
0.00315766
0.00290918
0.00267473
0.00246881
0.00230659
0.00219764
0.00213403
0.002024
0.00163877
0.00142348
0.000269023
0.00349351
0.00377857
0.00413998
0.00427838
0.00421955
0.00410855
0.0039521
0.00375846
0.00353718
0.00329826
0.00305207
0.00280989
0.00258481
0.00239183
0.00224539
0.00215227
0.00209986
0.00176737
0.00148593
0.00136245
0.000272357
0.00347786
0.00375665
0.00409849
0.00418435
0.0041189
0.00400057
0.00383793
0.00364029
0.00341735
0.00317915
0.00293634
0.00270082
0.00248646
0.00230845
0.00217963
0.00210296
0.0020094
0.00157288
0.00137454
0.00128761
0.000274776
0.0034609
0.00372654
0.00404134
0.00408924
0.00401483
0.00388766
0.00371676
0.00351316
0.00328698
0.00304853
0.00280901
0.00258117
0.00237966
0.00221934
0.00211009
0.00205005
0.0017601
0.00142545
0.00129104
0.00122406
0.000276023
0.00344239
0.00368962
0.00397385
0.00399315
0.00390647
0.00376729
0.00358597
0.00337422
0.00314338
0.00290423
0.00266879
0.0024508
0.00226541
0.00212633
0.00203834
0.00199448
0.00157731
0.00131941
0.00123451
0.00119516
0.000276121
0.00342078
0.00364896
0.00390397
0.00389443
0.00379104
0.00363589
0.00344121
0.00321984
0.00298359
0.00274446
0.00251536
0.00231098
0.00214647
0.00203129
0.00196648
0.00182275
0.00144556
0.00125385
0.00120885
0.00120364
0.000275054
0.00339324
0.0036037
0.00383775
0.00378971
0.00366409
0.00348879
0.00327813
0.00304611
0.00280551
0.00256879
0.00235031
0.00216539
0.00202702
0.00193962
0.00189811
0.00164294
0.00136014
0.00122886
0.00121732
0.00123942
0.00027295
0.00336007
0.00355542
0.00376686
0.00367287
0.00351937
0.00332066
0.00309288
0.00285088
0.00260848
0.00237938
0.0021784
0.00202119
0.00191352
0.00185573
0.00183516
0.00151337
0.00131906
0.00124586
0.00126384
0.00129207
0.000269363
0.0033256
0.00351259
0.00366482
0.00353503
0.00334956
0.00312633
0.00288279
0.00263436
0.00239585
0.00218244
0.00200849
0.00188492
0.00181281
0.00178306
0.00166541
0.00142431
0.00132385
0.00131084
0.00135282
0.00135168
0.000264354
0.00328043
0.00347814
0.00353818
0.00336671
0.00314791
0.00290226
0.00264765
0.00240003
0.00217534
0.00198891
0.00185215
0.00176849
0.00172959
0.00171992
0.00149255
0.00138743
0.00138354
0.00143483
0.00148704
0.00130875
0.000257122
0.00322868
0.00345156
0.00337384
0.00315876
0.00290965
0.00264785
0.00239111
0.0021561
0.00195913
0.00181261
0.00172028
0.00167379
0.0016583
0.00150739
0.00140099
0.00142507
0.00151348
0.0016149
0.001662
0.00125751
0.000248078
0.00317731
0.00337267
0.0031599
0.0029051
0.00263399
0.00236725
0.00212241
0.00191636
0.00176278
0.0016654
0.00161401
0.00159207
0.00147825
0.00138366
0.00141393
0.00154699
0.00165605
0.00170161
0.00163357
0.00119417
0.000237611
0.00312115
0.00315256
0.00288908
0.00260514
0.00232603
0.0020712
0.00185733
0.0016986
0.00160028
0.00154761
0.00145239
0.00130214
0.00128653
0.00137129
0.00149105
0.00152955
0.00159392
0.00164295
0.00156107
0.00112026
0.000225975
0.00303767
0.0028638
0.00256187
0.00226574
0.00199884
0.00177827
0.00161635
0.00151976
0.00147081
0.00123692
0.00113512
0.0011461
0.00123483
0.00136147
0.00139245
0.00145637
0.00153667
0.00157525
0.00147047
0.00103417
0.000213188
0.00283669
0.00250812
0.00218744
0.00190307
0.00167476
0.00151239
0.0014202
0.00126455
0.00104724
0.000993285
0.00102502
0.00109842
0.00119467
0.00124664
0.00131222
0.00140043
0.001472
0.00147876
0.00133715
0.000900624
0.000200565
0.0024547
0.00209606
0.001785
0.00154391
0.00138209
0.0012984
0.00101984
0.000888729
0.00088074
0.000925872
0.000968985
0.00098829
0.00102631
0.00114595
0.00123957
0.00132239
0.00134818
0.00131415
0.00114394
0.00074043
0.000188321
0.0020089
0.00165017
0.0013872
0.00122321
0.0010694
0.000816685
0.000764816
0.000801048
0.000849869
0.000838403
0.000782573
0.000751085
0.00080311
0.000967249
0.00109877
0.00114414
0.00114743
0.00108835
0.000914526
0.000582923
0.000175857
0.00151711
0.00120868
0.00103894
0.000763872
0.000649761
0.00067534
0.000751124
0.000793189
0.000715033
0.000579581
0.000537948
0.000570367
0.000659722
0.000808301
0.000890796
0.000910955
0.000898845
0.000833417
0.000687028
0.000447391
0.000162619
0.00101338
0.000827153
0.000532232
0.00052443
0.000614653
0.000721434
0.000708588
0.000597759
0.000455926
0.000393222
0.00041451
0.000473254
0.000557977
0.000618992
0.000653296
0.000662618
0.000648004
0.000597336
0.000498186
0.000344571
0.000140157
0.000567979
0.000329014
0.000399276
0.000528139
0.000625352
0.000603069
0.000454623
0.000307215
0.000243062
0.000239594
0.000261747
0.000294667
0.00033267
0.000370956
0.000403221
0.000420838
0.000422191
0.000403793
0.000357203
0.00027121
0.000116134
0.000158581
0.000122081
0.000118017
0.000113579
0.000103218
8.96423e-05
7.62835e-05
7.16806e-05
7.39452e-05
7.86318e-05
8.3754e-05
8.87703e-05
9.36127e-05
9.83799e-05
0.000103283
0.000108657
0.000113617
0.000116987
0.000108528
0.000110626
9.32126e-05
0.000290118
0.00117281
0.00153944
0.00199188
0.00235906
0.0026684
0.00292902
0.00312289
0.00324479
0.00329941
0.00329818
0.00325328
0.00317767
0.00308348
0.00298073
0.00287655
0.00277496
0.0026774
0.00258346
0.000296554
0.00129409
0.0016819
0.00214221
0.00252916
0.00282208
0.00305147
0.00320296
0.00327531
0.00327728
0.00322386
0.00313225
0.00301836
0.00289565
0.00277365
0.00265727
0.00254731
0.00244175
0.00233742
0.000302048
0.00142329
0.0018279
0.00229511
0.00266963
0.00293973
0.00313312
0.00324002
0.00326363
0.0032174
0.00312036
0.0029932
0.00285399
0.00271554
0.00258426
0.00246055
0.00234069
0.0022194
0.00209214
0.000306545
0.00149845
0.00198311
0.00245776
0.00278209
0.00302526
0.00318047
0.00324326
0.00322158
0.00313367
0.0030027
0.00285142
0.00269774
0.00255138
0.00241371
0.00228017
0.0021441
0.00200018
0.00184702
0.000310129
0.00154933
0.00215088
0.00256673
0.00286926
0.00308318
0.00320021
0.00322145
0.00315982
0.00303809
0.00288271
0.00271708
0.00255628
0.00240504
0.00225967
0.002113
0.00195967
0.00180002
0.00164184
0.000312896
0.00159049
0.00225061
0.00264885
0.00293418
0.00311821
0.00319875
0.00318253
0.00308733
0.00294001
0.00276895
0.00259608
0.00243193
0.00227584
0.00212127
0.00196289
0.00180247
0.00165153
0.00152902
0.000314919
0.00162236
0.00231549
0.00271333
0.00298009
0.00313495
0.00318194
0.00313326
0.00301138
0.00284633
0.00266676
0.0024912
0.00232482
0.00216319
0.00200091
0.00183991
0.0016939
0.00158526
0.00153643
0.000316267
0.00164571
0.00236669
0.00276231
0.00301019
0.00313765
0.00315486
0.00307926
0.00293753
0.00276175
0.00257903
0.00240314
0.00223439
0.00206775
0.0019038
0.00175627
0.00164999
0.00160989
0.00164701
0.000317007
0.00166141
0.00240573
0.00279797
0.00302754
0.0031301
0.00312178
0.00302494
0.00286979
0.00268915
0.00250688
0.00233145
0.00216016
0.00199138
0.00183598
0.00171996
0.00167228
0.00170792
0.00181594
0.000317205
0.00167033
0.00243411
0.00282242
0.00303489
0.00311552
0.00308615
0.00297361
0.00281087
0.00262995
0.00245023
0.0022752
0.0021019
0.0019361
0.00180111
0.00173073
0.00174814
0.00184943
0.00200421
0.000316924
0.00167333
0.00245326
0.00283759
0.00303466
0.00309659
0.00305065
0.00292764
0.00276232
0.0025845
0.00240826
0.00223329
0.00205959
0.00190312
0.00179874
0.00178088
0.00185879
0.00200957
0.00218851
0.000316225
0.00167126
0.00246454
0.00284523
0.0030289
0.00307546
0.00301726
0.00288853
0.00272478
0.00255235
0.00237971
0.00220455
0.00203277
0.00189184
0.00182465
0.00185919
0.00198766
0.0021713
0.00235959
0.000315164
0.00166488
0.00246918
0.00284687
0.0030193
0.00305378
0.00298735
0.00285708
0.0026982
0.00253251
0.0023631
0.00218771
0.0020204
0.00190003
0.00187258
0.00195478
0.00212304
0.00232667
0.00251741
0.000313795
0.00165491
0.00246828
0.00284381
0.00300723
0.00303277
0.00296177
0.00283351
0.00268193
0.00252354
0.00235664
0.00218138
0.00202106
0.00192442
0.00193603
0.00205968
0.00225794
0.00247319
0.00266434
0.000312166
0.001642
0.00246282
0.00283714
0.00299374
0.00301327
0.00294094
0.00281757
0.0026749
0.00252338
0.0022978
0.0021837
0.0020329
0.00196146
0.00200946
0.00216871
0.00238912
0.00261145
0.00280322
0.000310319
0.00162671
0.00245364
0.00282775
0.00297965
0.00299584
0.00292494
0.00280865
0.00267553
0.00235996
0.00216447
0.00219242
0.00205374
0.00200793
0.00208915
0.00227802
0.00251493
0.00274279
0.00293632
0.000308294
0.00160954
0.00244146
0.00281637
0.00296554
0.00298077
0.00291359
0.00280584
0.00265691
0.00221762
0.00206939
0.00213625
0.00208132
0.00206101
0.00217208
0.00238551
0.00263555
0.00286864
0.00306531
0.000306124
0.00159092
0.00242689
0.00280356
0.00295183
0.00296817
0.00290651
0.00280803
0.00249533
0.00211618
0.00200349
0.00208157
0.00211411
0.00211837
0.00225632
0.00249062
0.00275152
0.00299009
0.00319114
0.000303838
0.0015712
0.00241042
0.00278978
0.00293877
0.00295801
0.0029032
0.00281399
0.00237405
0.0020438
0.00195659
0.00204209
0.00215083
0.00217818
0.00234079
0.00259328
0.00286335
0.00310777
0.00331414
0.000301463
0.00155069
0.00239248
0.00277536
0.00292654
0.00295014
0.00290308
0.00282266
0.00228644
0.00199219
0.00192357
0.00201499
0.00219027
0.00223938
0.00242428
0.00269256
0.00297098
0.00322164
0.003434
0.000299018
0.00152963
0.00237342
0.00276055
0.0029152
0.00294434
0.00290552
0.00275418
0.00222316
0.00195628
0.00190162
0.00199743
0.00217863
0.00230089
0.00250524
0.00278711
0.00307355
0.00333084
0.00354969
0.000296523
0.00150824
0.00235351
0.00274555
0.00290476
0.00294034
0.0029099
0.00267286
0.00217782
0.00193189
0.00188775
0.0019866
0.00216407
0.00236121
0.00258195
0.00284745
0.00311877
0.00340111
0.00365948
0.000293993
0.00148668
0.00233297
0.00273047
0.00289517
0.00293788
0.0029157
0.00261258
0.00214617
0.00191625
0.00187992
0.00198056
0.00215434
0.00235136
0.00256683
0.00280998
0.00307026
0.00334211
0.00362617
0.00029144
0.00146509
0.00231199
0.00271542
0.00288637
0.00293669
0.00292253
0.00256939
0.00212515
0.00190776
0.00187671
0.00197685
0.00214589
0.00233492
0.00253804
0.00276753
0.00301721
0.00328019
0.00355581
0.000288874
0.00144355
0.0022907
0.00270044
0.00287826
0.00293651
0.0029301
0.00253946
0.0021126
0.00190515
0.00187717
0.00197471
0.00213762
0.00231819
0.0025101
0.00272702
0.00296588
0.00322078
0.00348952
0.000286303
0.00142216
0.00226923
0.00268556
0.00287076
0.00293713
0.00293817
0.00252022
0.00210704
0.00190736
0.00188063
0.00197418
0.00213013
0.00230237
0.00248429
0.00269007
0.00291912
0.00316642
0.00342883
0.000283734
0.00140098
0.00224765
0.0026708
0.00286375
0.00293835
0.00294658
0.00250984
0.00210745
0.00191362
0.00188666
0.00197535
0.00212407
0.00228826
0.00246127
0.00265765
0.0028788
0.00312015
0.00337738
0.000281171
0.00138005
0.00222603
0.00265614
0.00285714
0.00294
0.00295518
0.00250697
0.00211306
0.00192338
0.00189501
0.00197823
0.00211981
0.00227653
0.00244181
0.00263061
0.00284599
0.00308359
0.00333794
0.000278616
0.00135939
0.00220441
0.00264157
0.00285083
0.00294195
0.00296386
0.00251056
0.00212327
0.00193628
0.00190553
0.00198291
0.00211766
0.00226765
0.00242645
0.00260949
0.00282112
0.00305711
0.00331092
0.000276072
0.00133901
0.00218283
0.00262707
0.00284473
0.00294407
0.00297254
0.00251979
0.00213768
0.00195209
0.00191818
0.00198949
0.00211782
0.0022619
0.00241546
0.00259433
0.00280389
0.00303998
0.00329504
0.000273547
0.00131889
0.00216128
0.00261262
0.00283876
0.00294624
0.00298111
0.00253397
0.00215592
0.00197066
0.00193301
0.00199806
0.00212043
0.00225941
0.00240879
0.00258481
0.00279357
0.00303076
0.00328796
0.000271038
0.0012992
0.00213974
0.00259814
0.00283275
0.00294822
0.00298927
0.0025521
0.0021775
0.00199206
0.0019506
0.00200903
0.00212576
0.00226034
0.00240636
0.00258055
0.00278929
0.00302775
0.00328614
0.000268603
0.00127898
0.00211773
0.00258329
0.00282648
0.00294988
0.00299698
0.00257369
0.0022019
0.00201556
0.00197028
0.002023
0.00213478
0.00226559
0.00240905
0.00258154
0.00278972
0.00302856
0.00328721
0.00026623
0.00125832
0.00209531
0.00256806
0.00281991
0.00295115
0.0030042
0.00259837
0.00222896
0.00204095
0.00199198
0.00203974
0.00214737
0.00227525
0.00241652
0.00258702
0.00279385
0.00303195
0.00328966
0.000263913
0.0012374
0.00207248
0.00255243
0.00281296
0.00295197
0.00301092
0.00262577
0.00225856
0.00206827
0.00201567
0.0020591
0.00216325
0.0022889
0.00242821
0.00259635
0.00280092
0.0030371
0.00329273
0.000261642
0.00121634
0.00204925
0.00253638
0.00280559
0.00295229
0.00301713
0.00265552
0.00229057
0.0020975
0.00204133
0.00208092
0.00218211
0.00230611
0.00244366
0.00260899
0.00281032
0.00304334
0.0032956
0.000259414
0.00119522
0.00202561
0.00251987
0.00279774
0.00295206
0.00302281
0.00268718
0.00232482
0.00212863
0.00206893
0.00210505
0.00220369
0.00232649
0.00246244
0.00262453
0.00282149
0.00304973
0.00329707
0.000257221
0.00117406
0.00200157
0.00250287
0.00278937
0.00295125
0.00302796
0.00272026
0.00236106
0.00216157
0.00209842
0.00213135
0.0022277
0.00234972
0.00248426
0.0026427
0.00283407
0.00305583
0.00329646
0.00025506
0.0011529
0.00197717
0.00248537
0.00278043
0.00294983
0.00303258
0.00275423
0.002399
0.00219622
0.0021297
0.00215974
0.00225392
0.0023756
0.00250898
0.00266354
0.00284827
0.00306229
0.00329005
0.000252925
0.00113176
0.00195241
0.00246734
0.00277091
0.00294779
0.00303666
0.00278846
0.00243827
0.0022324
0.00216244
0.00219009
0.00228237
0.00240403
0.00253677
0.00268729
0.00286513
0.00306784
0.00327833
0.000250811
0.00111069
0.00192732
0.00244877
0.00276076
0.0029451
0.00304021
0.00282223
0.00247837
0.00226986
0.00219642
0.00222204
0.00231295
0.00243482
0.00256752
0.00271451
0.002885
0.00306507
0.00326733
0.000248716
0.00108972