/*--------------------------------*- C++ -*----------------------------------*\
| =========                 |                                                 |
| \\      /  F ield         | OpenFOAM: The Open Source CFD Toolbox           |
|  \\    /   O peration     | Version:  v2012                                 |
|   \\  /    A nd           | Website:  www.openfoam.com                      |
|    \\/     M anipulation  |                                                 |
\*---------------------------------------------------------------------------*/
FoamFile
{
    version     2.0;
    format      ascii;
    class       volScalarField;
    location    "622";
    object      p;
}
// * * * * * * * * * * * * * * * * * * * * * * * * * * * * * * * * * * * * * //

dimensions      [0 2 -2 0 0 0 0];


internalField   nonuniform List<scalar> 
6057
(
0.320311
0.320865
0.32134
0.321753
0.322116
0.322441
0.32274
0.323019
0.323285
0.323542
0.323792
0.324037
0.324279
0.32452
0.324765
0.325013
0.325271
0.325591
0.326118
0.326886
0.320314
0.320877
0.321356
0.321768
0.322131
0.322458
0.322758
0.32304
0.323309
0.32357
0.323825
0.324076
0.324326
0.324575
0.324827
0.325079
0.325331
0.325604
0.325922
0.326203
0.320357
0.320914
0.321384
0.321785
0.322138
0.322456
0.322749
0.323026
0.323292
0.323551
0.323805
0.324056
0.324306
0.324557
0.324809
0.325054
0.325292
0.325531
0.325738
0.325836
0.3205
0.321032
0.321474
0.321849
0.322179
0.322477
0.322757
0.323023
0.323282
0.323535
0.323785
0.324033
0.32428
0.324528
0.324773
0.325009
0.325236
0.325454
0.325623
0.32568
0.320751
0.321233
0.321628
0.32196
0.322255
0.322527
0.322788
0.323041
0.323289
0.323536
0.323781
0.324026
0.324271
0.324515
0.324757
0.324989
0.325211
0.325417
0.325569
0.325615
0.321116
0.321515
0.321839
0.32211
0.32236
0.3226
0.322837
0.323074
0.323311
0.32355
0.323791
0.324032
0.324275
0.324518
0.324759
0.32499
0.325212
0.325417
0.32557
0.325615
0.321617
0.321873
0.3221
0.322291
0.322484
0.322686
0.322898
0.323118
0.323345
0.323577
0.323813
0.324051
0.324293
0.324536
0.324779
0.325012
0.325238
0.325455
0.325624
0.325682
0.322309
0.322305
0.322396
0.322483
0.322614
0.322776
0.322964
0.32317
0.323388
0.323614
0.323847
0.324085
0.324325
0.324569
0.324817
0.32506
0.325296
0.325534
0.325739
0.325837
0.323187
0.322775
0.322664
0.32264
0.322713
0.322845
0.323016
0.323211
0.323422
0.323645
0.323874
0.324109
0.324347
0.324589
0.324836
0.325085
0.325335
0.325607
0.325925
0.326205
0.324051
0.323188
0.322785
0.32269
0.322728
0.322843
0.323005
0.323194
0.3234
0.323617
0.323841
0.324069
0.3243
0.324534
0.324774
0.325019
0.325275
0.325593
0.326121
0.326888
0.412398
0.393326
0.376585
0.362141
0.349921
0.339809
0.331661
0.325305
0.320553
0.317205
0.315053
0.313884
0.313494
0.313691
0.314296
0.31515
0.316128
0.317121
0.318062
0.318915
0.319664
0.412387
0.393273
0.376468
0.361951
0.349659
0.33948
0.331274
0.32487
0.320085
0.316722
0.314573
0.313427
0.313077
0.313329
0.314
0.314928
0.31597
0.317019
0.318002
0.318882
0.319651
0.409697
0.390728
0.374064
0.35969
0.347539
0.337506
0.329448
0.323198
0.318572
0.315376
0.313404
0.312443
0.312278
0.312707
0.313544
0.314621
0.315792
0.316943
0.317991
0.318906
0.319692
0.404388
0.385712
0.369357
0.355305
0.343489
0.333799
0.326091
0.320196
0.315928
0.313094
0.311486
0.310885
0.311068
0.311819
0.312949
0.31428
0.31566
0.316964
0.318101
0.319051
0.319844
0.39642
0.378203
0.362344
0.348812
0.337535
0.328397
0.32125
0.315919
0.312213
0.309925
0.308864
0.308805
0.309498
0.310715
0.312265
0.313957
0.315621
0.317132
0.318376
0.319342
0.320121
0.385814
0.368233
0.35306
0.340249
0.329716
0.321344
0.314976
0.310408
0.307425
0.305849
0.305533
0.306223
0.307613
0.309442
0.311534
0.313703
0.315733
0.317514
0.318881
0.319803
0.320522
0.37265
0.355882
0.341585
0.329692
0.320103
0.312692
0.307274
0.30358
0.301457
0.30086
0.301543
0.303193
0.305534
0.308176
0.310914
0.31364
0.316117
0.318228
0.319698
0.320426
0.321034
0.357118
0.341345
0.32811
0.31732
0.308847
0.302538
0.298191
0.295606
0.294656
0.295199
0.296956
0.299684
0.303158
0.306897
0.310442
0.313775
0.316739
0.319154
0.320705
0.321185
0.321655
0.339653
0.325075
0.313093
0.303575
0.296361
0.291272
0.288125
0.286756
0.286968
0.288497
0.291251
0.295123
0.299776
0.304577
0.309065
0.313182
0.316712
0.319527
0.321869
0.322987
0.322251
0.321072
0.307913
0.297367
0.289255
0.283387
0.279575
0.277665
0.277521
0.278905
0.281497
0.285363
0.29043
0.2963
0.302534
0.308778
0.314645
0.319735
0.323695
0.327234
0.327693
0.319968
0.770058
0.768793
0.768071
0.768124
0.767946
0.765932
0.758189
0.742167
0.719861
0.693597
0.664744
0.634346
0.603233
0.572102
0.541542
0.512049
0.484043
0.457895
0.433918
0.769487
0.767796
0.767599
0.768463
0.768672
0.765789
0.756117
0.739334
0.717606
0.691922
0.663552
0.633545
0.602741
0.571841
0.541445
0.512058
0.484113
0.457982
0.433959
0.76981
0.767808
0.767779
0.768275
0.766829
0.761114
0.749393
0.732209
0.710774
0.685688
0.657991
0.628595
0.598307
0.567829
0.53777
0.508658
0.48094
0.455001
0.431132
0.771947
0.769473
0.768471
0.766691
0.76217
0.753616
0.740415
0.722831
0.701394
0.676683
0.649511
0.62065
0.590845
0.560779
0.53107
0.50226
0.474821
0.449148
0.425546
0.775214
0.771774
0.768542
0.763781
0.756162
0.745141
0.730422
0.712052
0.690287
0.665609
0.638652
0.610081
0.580578
0.550803
0.521374
0.492849
0.465714
0.440379
0.417155
0.777836
0.772655
0.766836
0.759127
0.748725
0.735453
0.719109
0.699679
0.677317
0.652377
0.625362
0.596852
0.567474
0.537868
0.508652
0.480398
0.453604
0.42869
0.405971
0.777965
0.770735
0.762614
0.752232
0.739398
0.724104
0.706174
0.685587
0.662445
0.637018
0.609718
0.58106
0.551635
0.52207
0.492993
0.464989
0.438571
0.414162
0.392073
0.774416
0.765441
0.755473
0.742874
0.728006
0.710944
0.691527
0.669756
0.645713
0.61962
0.591834
0.562833
0.53319
0.503541
0.474529
0.446761
0.420762
0.396957
0.375639
0.767486
0.756758
0.745304
0.730989
0.71447
0.695884
0.675097
0.652156
0.62714
0.600247
0.571812
0.542301
0.5123
0.482467
0.453482
0.425978
0.400492
0.377436
0.357073
0.757055
0.744726
0.732159
0.716559
0.698729
0.678858
0.656846
0.632786
0.606768
0.57899
0.54979
0.519655
0.489209
0.459164
0.43025
0.403133
0.378351
0.356284
0.337137
0.302215
0.290837
0.282015
0.275511
0.27109
0.268543
0.267711
0.268455
0.270534
0.273681
0.277848
0.282984
0.288788
0.294896
0.300738
0.305749
0.309946
0.313975
0.317097
0.314551
0.302817
0.285161
0.275971
0.269159
0.264449
0.261609
0.260457
0.260871
0.262754
0.265914
0.270091
0.275088
0.280915
0.287328
0.293814
0.299593
0.304235
0.308015
0.31143
0.313267
0.311312
0.306537
0.271678
0.264627
0.259652
0.256505
0.255006
0.255002
0.25635
0.258939
0.262599
0.26702
0.272099
0.277882
0.284151
0.290542
0.296523
0.301605
0.305661
0.308727
0.310052
0.308768
0.306246
0.261685
0.256445
0.252942
0.250958
0.250317
0.250872
0.252505
0.255178
0.258835
0.263313
0.268458
0.27416
0.280239
0.286379
0.292199
0.297372
0.301666
0.304844
0.306405
0.305995
0.304583
0.254337
0.250354
0.247716
0.24626
0.245888
0.246546
0.248204
0.250847
0.254413
0.258802
0.263897
0.269553
0.275559
0.281611
0.28738
0.292589
0.296991
0.300294
0.302225
0.302623
0.301919
0.2484
0.245071
0.242795
0.241514
0.241214
0.24189
0.243535
0.246137
0.249633
0.253933
0.258925
0.264467
0.270352
0.276288
0.281985
0.2872
0.291689
0.295168
0.297477
0.298508
0.298276
0.242945
0.23991
0.237782
0.236572
0.236298
0.23697
0.238581
0.241115
0.244517
0.248704
0.253567
0.258966
0.264706
0.270516
0.276134
0.281353
0.28592
0.289563
0.292173
0.293652
0.293728
0.237564
0.234674
0.232626
0.231455
0.231192
0.231842
0.2334
0.23585
0.23914
0.243196
0.247913
0.253155
0.25874
0.264425
0.269966
0.275169
0.279783
0.283549
0.28637
0.288132
0.288401
0.232146
0.229351
0.227364
0.226224
0.22596
0.226578
0.228072
0.230425
0.233593
0.237506
0.242065
0.247142
0.252568
0.258125
0.263579
0.268743
0.273371
0.277209
0.280156
0.282073
0.282453
0.226702
0.223991
0.222061
0.220947
0.220678
0.221256
0.222678
0.224929
0.227967
0.231728
0.236122
0.241028
0.246289
0.251709
0.257068
0.262171
0.266779
0.27064
0.273638
0.275619
0.276054
0.221284
0.218657
0.216783
0.215694
0.215416
0.215952
0.217298
0.219441
0.222343
0.225946
0.230169
0.2349
0.239994
0.245269
0.250521
0.255543
0.260099
0.263941
0.266934
0.268915
0.269369
0.21595
0.213411
0.211593
0.210528
0.210241
0.210731
0.211999
0.214031
0.216795
0.220237
0.224285
0.228836
0.233758
0.238882
0.244012
0.248936
0.253417
0.257208
0.260158
0.262098
0.262548
0.210754
0.208303
0.206544
0.205504
0.205207
0.205653
0.206843
0.208763
0.211386
0.214666
0.218536
0.222905
0.227649
0.232614
0.237609
0.242422
0.246811
0.250533
0.253415
0.255291
0.255726
0.205741
0.203381
0.201681
0.200667
0.200363
0.200766
0.201878
0.203689
0.206172
0.209289
0.212981
0.217165
0.22173
0.226529
0.23138
0.236071
0.24036
0.243999
0.246802
0.248604
0.24902
0.200948
0.19868
0.197041
0.196057
0.195747
0.196109
0.197147
0.19885
0.201198
0.204155
0.207671
0.211671
0.216054
0.220684
0.225386
0.229949
0.234132
0.237683
0.240405
0.242131
0.242529
0.196405
0.19423
0.192655
0.191701
0.191389
0.191714
0.192681
0.194283
0.1965
0.199303
0.202647
0.206467
0.21067
0.215131
0.219681
0.224115
0.228191
0.231654
0.234299
0.235953
0.236341
0.192134
0.190055
0.188544
0.187624
0.187312
0.187605
0.188507
0.190013
0.192107
0.194762
0.197942
0.201588
0.205618
0.209913
0.214314
0.218621
0.222592
0.225972
0.228548
0.230138
0.230525
0.188152
0.186169
0.184726
0.183842
0.183534
0.183799
0.184643
0.186061
0.188039
0.190558
0.193584
0.197066
0.20093
0.205067
0.209326
0.213511
0.217385
0.220689
0.223209
0.224746
0.225145
0.184472
0.182586
0.181212
0.180367
0.180067
0.180309
0.181101
0.18244
0.184314
0.186707
0.189591
0.192922
0.196633
0.200623
0.204749
0.208823
0.212609
0.215849
0.218328
0.219827
0.220252
0.181102
0.179314
0.17801
0.177206
0.176917
0.177142
0.177891
0.179159
0.180941
0.183222
0.185979
0.189174
0.192747
0.196605
0.200613
0.204589
0.208302
0.211492
0.213947
0.215422
0.215894
0.178051
0.17636
0.175126
0.174365
0.174091
0.174304
0.175015
0.176224
0.177925
0.180108
0.182755
0.185832
0.189285
0.19303
0.196938
0.200835
0.204493
0.20765
0.2101
0.211572
0.212111
0.175329
0.173735
0.172569
0.171849
0.171592
0.171797
0.172478
0.173636
0.175269
0.17737
0.179924
0.182903
0.186258
0.189911
0.193742
0.197581
0.201206
0.204351
0.20682
0.20831
0.208937
0.172911
0.171435
0.170346
0.169666
0.169422
0.169622
0.170278
0.171394
0.172971
0.175006
0.177487
0.180389
0.18367
0.187257
0.191037
0.194845
0.198462
0.201621
0.204136
0.205666
0.206394
0.170775
0.169419
0.168436
0.167816
0.167586
0.167777
0.168412
0.169495
0.17103
0.173015
0.175442
0.178291
0.181524
0.185072
0.188831
0.192638
0.196278
0.19948
0.202068
0.203656
0.204511
0.168959
0.167686
0.166796
0.166267
0.166078
0.166263
0.166875
0.167932
0.169437
0.171389
0.173784
0.176605
0.179817
0.183359
0.187129
0.190971
0.194672
0.197949
0.200634
0.202295
0.203338
0.167487
0.166277
0.165441
0.16498
0.16486
0.165065
0.165661
0.166697
0.168184
0.170122
0.172506
0.175324
0.178547
0.182117
0.185936
0.189853
0.193654
0.197045
0.19987
0.201674
0.202917
0.166346
0.165193
0.1644
0.163972
0.163896
0.164146
0.164749
0.165777
0.167261
0.169202
0.171599
0.174444
0.177709
0.181344
0.185255
0.189291
0.193236
0.196781
0.19981
0.201863
0.203285
0.165519
0.164416
0.163663
0.163261
0.163202
0.163478
0.16411
0.165153
0.166654
0.16862
0.171055
0.173954
0.177298
0.181038
0.185086
0.189291
0.193428
0.197188
0.200479
0.202693
0.204405
0.164992
0.16393
0.163209
0.162832
0.162786
0.16307
0.163729
0.164815
0.166354
0.168366
0.170863
0.173847
0.177304
0.181192
0.185426
0.189855
0.194248
0.198309
0.201894
0.204243
0.206319
0.16476
0.163727
0.163031
0.162673
0.162636
0.162926
0.16362
0.16476
0.166353
0.16843
0.171014
0.174113
0.177721
0.181803
0.186276
0.190989
0.195703
0.200108
0.203952
0.206653
0.20912
0.164818
0.163805
0.163126
0.162779
0.162743
0.163057
0.163802
0.164992
0.166648
0.168808
0.171502
0.174746
0.178544
0.182867
0.187637
0.192699
0.197802
0.202585
0.206778
0.209883
0.212834
0.165168
0.164167
0.163498
0.163157
0.163121
0.163469
0.164269
0.16551
0.167237
0.169495
0.17232
0.175741
0.179767
0.18438
0.189506
0.194986
0.200547
0.205793
0.210487
0.213999
0.217471
0.165817
0.164818
0.164151
0.163807
0.163783
0.164173
0.165013
0.166308
0.168115
0.170485
0.173463
0.177089
0.181383
0.186336
0.191879
0.197846
0.203942
0.209733
0.214962
0.218963
0.223038
0.16677
0.165765
0.165092
0.164737
0.164735
0.165166
0.166036
0.167387
0.16928
0.171774
0.174925
0.178783
0.183382
0.188725
0.194746
0.201272
0.207977
0.21439
0.220213
0.224765
0.22952
0.168034
0.167014
0.16633
0.165964
0.165978
0.166439
0.167337
0.168744
0.170729
0.173357
0.176697
0.180813
0.185754
0.191533
0.198091
0.205244
0.212627
0.21973
0.226199
0.231353
0.236859
0.169617
0.168571
0.167868
0.167495
0.167517
0.167987
0.168914
0.170378
0.172457
0.175228
0.178771
0.183168
0.188481
0.194739
0.201888
0.209729
0.217848
0.225704
0.232858
0.238634
0.244935
0.171529
0.170447
0.169712
0.169337
0.169365
0.169823
0.17077
0.172288
0.174461
0.177379
0.181136
0.18583
0.191542
0.198315
0.206099
0.214674
0.223573
0.232246
0.240091
0.246443
0.253543
0.173785
0.172657
0.171882
0.171498
0.171515
0.171949
0.172907
0.174473
0.176737
0.179802
0.183779
0.18878
0.194907
0.202218
0.210664
0.219992
0.229703
0.239253
0.247702
0.254532
0.262376
0.176397
0.175213
0.174396
0.173979
0.173957
0.174363
0.175324
0.17693
0.17928
0.182489
0.186682
0.191991
0.198536
0.206388
0.215492
0.225554
0.236076
0.246471
0.255344
0.262576
0.271013
0.179375
0.17812
0.177251
0.176779
0.176697
0.177067
0.178021
0.179658
0.182084
0.185427
0.189827
0.195433
0.202378
0.210744
0.220455
0.231173
0.242436
0.253443
0.262597
0.270153
0.278895
0.18273
0.181388
0.180451
0.179903
0.179743
0.180064
0.180999
0.182654
0.185144
0.188606
0.193194
0.199069
0.206372
0.215184
0.225391
0.236631
0.248423
0.259713
0.269068
0.276744
0.285371
0.186475
0.185029
0.184003
0.183356
0.183099
0.183356
0.18426
0.185919
0.188454
0.192014
0.196756
0.202854
0.210449
0.21962
0.230117
0.241673
0.253646
0.264951
0.274347
0.281937
0.290041
0.190628
0.189055
0.187914
0.187144
0.186773
0.186949
0.187807
0.189454
0.192015
0.195641
0.200488
0.206732
0.214525
0.223921
0.234403
0.245933
0.257721
0.268842
0.278024
0.285526
0.293037
0.195206
0.19348
0.192193
0.191274
0.190768
0.190849
0.191646
0.193264
0.195826
0.199482
0.204369
0.210676
0.218498
0.227641
0.237961
0.249053
0.260259
0.270933
0.279685
0.287103
0.29392
0.20023
0.198317
0.196848
0.195749
0.195091
0.195062
0.195786
0.197358
0.199893
0.203526
0.208362
0.214676
0.222253
0.23077
0.240489
0.2507
0.260962
0.270812
0.278954
0.286166
0.292319
0.205726
0.203582
0.201886
0.200578
0.199748
0.199599
0.200241
0.201753
0.204228
0.207753
0.21241
0.218506
0.22534
0.23323
0.241765
0.250626
0.259626
0.268321
0.275687
0.282472
0.288688
0.211721
0.209293
0.207318
0.205765
0.204745
0.204469
0.20503
0.206474
0.208843
0.212194
0.216627
0.221937
0.228004
0.234731
0.241679
0.248833
0.256294
0.263662
0.27023
0.276558
0.283038
0.218242
0.215464
0.213145
0.211303
0.210082
0.209687
0.210174
0.211532
0.213761
0.216982
0.221072
0.225201
0.230172
0.23518
0.24022
0.24556
0.251383
0.257462
0.263332
0.269112
0.275545
0.225308
0.222083
0.219347
0.21717
0.215749
0.215255
0.215679
0.216953
0.219153
0.222168
0.224986
0.228105
0.231468
0.234583
0.237728
0.241381
0.24569
0.250626
0.255859
0.261034
0.267402
0.232917
0.229109
0.225869
0.223321
0.221716
0.221151
0.22155
0.222918
0.225105
0.226729
0.228611
0.230787
0.232219
0.233369
0.234825
0.236995
0.24005
0.243998
0.248529
0.25314
0.259398
0.241033
0.236477
0.232619
0.229676
0.22791
0.227347
0.227958
0.229502
0.230335
0.231399
0.232718
0.232903
0.232432
0.23192
0.231946
0.232882
0.234926
0.238033
0.241905
0.245961
0.25169
0.249535
0.244026
0.239414
0.236083
0.234231
0.233922
0.234965
0.235351
0.235806
0.236532
0.235964
0.234381
0.23237
0.230488
0.229376
0.229398
0.23068
0.233123
0.236524
0.240099
0.245161
0.258191
0.251447
0.245984
0.242365
0.240613
0.240727
0.240981
0.241114
0.241544
0.240668
0.238515
0.235524
0.232275
0.229422
0.227525
0.226893
0.227652
0.229729
0.232877
0.236064
0.240649
0.266612
0.258277
0.251983
0.248266
0.246544
0.24631
0.246429
0.246853
0.246088
0.243841
0.240403
0.236429
0.232493
0.229042
0.226597
0.225572
0.226073
0.22806
0.231154
0.234233
0.238584
0.274099
0.263659
0.256602
0.252579
0.251109
0.251013
0.251468
0.251043
0.249104
0.245859
0.241782
0.237379
0.233056
0.229248
0.226547
0.22541
0.225911
0.228075
0.23141
0.234879
0.23932
0.279444
0.266109
0.258329
0.254616
0.253855
0.254233
0.254215
0.252993
0.250576
0.247199
0.243029
0.238413
0.233836
0.229893
0.227241
0.2263
0.227141
0.229793
0.23375
0.238167
0.242901
0.280465
0.264947
0.257599
0.254909
0.254556
0.254636
0.254364
0.253381
0.251389
0.248237
0.244081
0.239404
0.234817
0.231033
0.228718
0.228219
0.229664
0.233092
0.238092
0.243804
0.248619
0.275134
0.259865
0.254663
0.253396
0.253226
0.253415
0.253707
0.2534
0.251795
0.248787
0.244755
0.240292
0.236016
0.232637
0.23082
0.230932
0.233176
0.23765
0.244052
0.250845
0.254741
0.259508
0.251513
0.251288
0.250857
0.251437
0.252553
0.253199
0.252925
0.251439
0.248724
0.245071
0.240975
0.237077
0.234127
0.232889
0.233823
0.237142
0.242842
0.250426
0.256937
0.25885
0.246013
0.247655
0.248404
0.249404
0.250693
0.251878
0.252402
0.252044
0.250702
0.248356
0.245154
0.241492
0.238018
0.235605
0.235092
0.236986
0.241248
0.247475
0.2549
0.259877
0.260324
0.742191
0.728862
0.7156
0.699089
0.680237
0.659276
0.636173
0.611043
0.584005
0.55528
0.525235
0.494417
0.463526
0.433359
0.404716
0.378294
0.35461
0.333979
0.316503
0.72294
0.709067
0.695544
0.67849
0.658907
0.637068
0.613023
0.586908
0.558882
0.529213
0.498338
0.466906
0.435745
0.405774
0.377871
0.352742
0.330833
0.312323
0.297147
0.700429
0.686406
0.672866
0.655599
0.635548
0.613066
0.588267
0.561317
0.532432
0.501952
0.470433
0.438678
0.407684
0.378506
0.352065
0.328998
0.309578
0.293752
0.281228
0.675536
0.66154
0.648102
0.630815
0.610526
0.587624
0.562265
0.534673
0.505129
0.474088
0.442271
0.410686
0.380514
0.3529
0.328714
0.308392
0.291925
0.278975
0.269039
0.648886
0.635037
0.621782
0.60457
0.584259
0.561145
0.535447
0.507452
0.477535
0.446304
0.414691
0.383923
0.355326
0.330034
0.308721
0.291502
0.278037
0.267739
0.25999
0.620975
0.607411
0.59438
0.57734
0.557195
0.534075
0.508284
0.480175
0.450247
0.419298
0.388487
0.359228
0.332898
0.310474
0.292308
0.278141
0.267337
0.259165
0.252987
0.592298
0.57914
0.566387
0.549648
0.52981
0.506886
0.481261
0.453363
0.42384
0.393691
0.364285
0.337143
0.31356
0.294229
0.279109
0.267602
0.258883
0.252192
0.246975
0.563342
0.55069
0.538301
0.52197
0.50256
0.480032
0.454836
0.42749
0.398797
0.369951
0.342466
0.317863
0.297228
0.280891
0.268437
0.259023
0.251768
0.246
0.241315
0.534551
0.522483
0.510541
0.494707
0.475852
0.453914
0.429407
0.402942
0.375475
0.348354
0.323154
0.301284
0.283534
0.26986
0.259551
0.251653
0.245353
0.240131
0.235739
0.506306
0.494879
0.483452
0.468201
0.450028
0.428863
0.405284
0.379994
0.354081
0.328987
0.30626
0.287104
0.271982
0.260522
0.251835
0.24498
0.239283
0.234387
0.230177
0.478927
0.46818
0.457324
0.442736
0.42536
0.40513
0.382683
0.358805
0.33468
0.311783
0.291554
0.274936
0.262077
0.252369
0.244858
0.238705
0.233395
0.228716
0.224649
0.452671
0.442632
0.43239
0.418534
0.402052
0.382887
0.361729
0.339429
0.317224
0.296569
0.278739
0.26439
0.2534
0.245031
0.238358
0.232683
0.227642
0.223134
0.219203
0.427741
0.418423
0.408825
0.395755
0.380238
0.362232
0.342466
0.321833
0.301582
0.283112
0.267513
0.25513
0.245636
0.23827
0.232197
0.226863
0.222032
0.217683
0.21389
0.404281
0.395685
0.386747
0.374498
0.359992
0.343198
0.324876
0.305926
0.287567
0.271147
0.257611
0.246907
0.238567
0.231945
0.226312
0.221241
0.216595
0.212407
0.208758
0.382385
0.374499
0.366226
0.354815
0.341337
0.325774
0.308894
0.291574
0.274955
0.260466
0.248855
0.239526
0.232052
0.225983
0.220684
0.215835
0.211369
0.207345
0.203844
0.362103
0.354906
0.347289
0.336715
0.32426
0.309914
0.294438
0.278658
0.263668
0.250981
0.240987
0.232769
0.225999
0.220346
0.215317
0.21067
0.206384
0.202529
0.199177
0.343446
0.336909
0.329929
0.320175
0.308719
0.295553
0.281412
0.267049
0.25369
0.242617
0.23377
0.226466
0.220323
0.215008
0.210219
0.205767
0.201665
0.197982
0.194782
0.326397
0.320484
0.314113
0.305152
0.294653
0.282614
0.269736
0.256682
0.244863
0.235147
0.227144
0.220582
0.214967
0.209962
0.205402
0.201146
0.197231
0.193723
0.190675
0.310913
0.305585
0.29979
0.291582
0.281989
0.271007
0.259314
0.247511
0.237004
0.228352
0.221071
0.215114
0.209936
0.20522
0.20088
0.196821
0.193096
0.189763
0.186869
0.296935
0.292152
0.286893
0.279393
0.270643
0.260633
0.25
0.23939
0.230008
0.222171
0.215517
0.210042
0.205245
0.200805
0.196666
0.192802
0.189269
0.186113
0.183373
0.284391
0.280113
0.275348
0.268505
0.26053
0.251404
0.241698
0.232183
0.22378
0.216581
0.210459
0.20537
0.2009
0.19672
0.192766
0.189094
0.185755
0.182781
0.180196
0.273209
0.269392
0.26508
0.258839
0.251571
0.243252
0.234382
0.2258
0.218203
0.211546
0.205885
0.201116
0.196898
0.192946
0.189191
0.185713
0.18256
0.179763
0.177342
0.263314
0.259912
0.25601
0.250318
0.243689
0.236101
0.227992
0.22018
0.213225
0.207046
0.201782
0.19729
0.193273
0.189523
0.185976
0.182687
0.1797
0.177054
0.174782
0.254625
0.251598
0.248065
0.242869
0.236809
0.229871
0.222443
0.215273
0.208838
0.203073
0.198148
0.193901
0.190073
0.186506
0.183149
0.180034
0.177199
0.174685
0.172528
0.247067
0.244374
0.241172
0.236421
0.230864
0.224493
0.217663
0.211034
0.205031
0.199622
0.194983
0.190953
0.187306
0.183909
0.180719
0.17776
0.175067
0.172677
0.170625
0.240566
0.238172
0.235264
0.230907
0.225792
0.219914
0.213602
0.207432
0.201788
0.19668
0.192283
0.188444
0.184964
0.181722
0.178683
0.175865
0.173301
0.171026
0.169074
0.235053
0.232925
0.230281
0.226272
0.221541
0.21609
0.210223
0.204438
0.199091
0.194238
0.190046
0.186372
0.183039
0.179937
0.177034
0.174343
0.171894
0.169723
0.167859
0.230469
0.228579
0.226171
0.222464
0.218065
0.212979
0.207494
0.20203
0.196927
0.192286
0.188264
0.184732
0.181528
0.17855
0.175766
0.173186
0.170839
0.168756
0.166969
0.226752
0.225052
0.22289
0.219437
0.215322
0.210548
0.205387
0.200191
0.195284
0.190816
0.186934
0.183521
0.180428
0.177556
0.174873
0.172388
0.170126
0.168118
0.166393
0.223879
0.22245
0.220407
0.217148
0.213277
0.208767
0.203879
0.198904
0.194152
0.189821
0.18605
0.182734
0.179733
0.17695
0.174351
0.171943
0.16975
0.1678
0.166123
0.221817
0.220639
0.218632
0.21556
0.211899
0.20761
0.202951
0.198157
0.193525
0.189297
0.18561
0.182369
0.17944
0.176728
0.174196
0.171848
0.169706
0.167799
0.166155
0.220442
0.21935
0.217486
0.214635
0.211158
0.207055
0.202587
0.19794
0.193394
0.18924
0.185611
0.182424
0.179549
0.176889
0.174406
0.1721
0.169994
0.168114
0.166491
0.219739
0.218669
0.216999
0.214352
0.21103
0.207086
0.202775
0.198241
0.193756
0.189649
0.186055
0.1829
0.180059
0.177434
0.174982
0.172702
0.170616
0.16875
0.167135
0.219725
0.218728
0.217206
0.214702
0.211505
0.207693
0.203506
0.199056
0.194607
0.190526
0.186944
0.1838
0.180974
0.178366
0.175928
0.173659
0.171578
0.169713
0.168095
0.220409
0.219498
0.218078
0.215671
0.212573
0.208865
0.204775
0.200384
0.195949
0.191871
0.188281
0.185129
0.182299
0.17969
0.177251
0.174978
0.172888
0.17101
0.169376
0.221741
0.220947
0.219577
0.217239
0.214221
0.210595
0.206577
0.202224
0.197785
0.193688
0.19007
0.18689
0.18404
0.181415
0.17896
0.176667
0.174555
0.172651
0.170988
0.22367
0.22302
0.221664
0.219387
0.216435
0.212873
0.208908
0.204578
0.200119
0.195984
0.19232
0.189095
0.186207
0.183551
0.181066
0.17874
0.176591
0.174646
0.17294
0.226162
0.225627
0.224304
0.222096
0.219203
0.215693
0.211767
0.207447
0.202956
0.198769
0.195041
0.191754
0.188812
0.18611
0.183581
0.181208
0.179008
0.177009
0.175247
0.229206
0.228749
0.227485
0.225353
0.222514
0.219049
0.215154
0.210835
0.206307
0.202053
0.198248
0.194883
0.191872
0.189109
0.186521
0.184087
0.181821
0.179754
0.177925
0.232799
0.232412
0.231208
0.229148
0.226361
0.222938
0.219069
0.214748
0.210179
0.20585
0.201955
0.198499
0.195404
0.192566
0.189904
0.187393
0.185047
0.182899
0.180988
0.236931
0.236614
0.235465
0.233472
0.230739
0.227359
0.223514
0.219192
0.214585
0.210176
0.206182
0.202624
0.19943
0.1965
0.193749
0.191146
0.188705
0.186462
0.184448
0.241581
0.241332
0.240238
0.238315
0.235639
0.232308
0.22849
0.224175
0.219536
0.215049
0.21095
0.207279
0.203975
0.200938
0.198081
0.19537
0.192822
0.190461
0.188317
0.246725
0.246543
0.245508
0.243662
0.241053
0.237781
0.234
0.229702
0.225047
0.220489
0.216285
0.212494
0.209067
0.205908
0.202928
0.200098
0.197423
0.194914
0.192616
0.25234
0.252226
0.251256
0.249497
0.24697
0.243771
0.240043
0.23578
0.23113
0.226517
0.222213
0.218299
0.21474
0.211443
0.208329
0.205366
0.202532
0.199845
0.197366
0.258401
0.258356
0.257459
0.255802
0.253374
0.250272
0.246616
0.242414
0.237798
0.233154
0.228765
0.224732
0.221035
0.217589
0.214333
0.211211
0.208182
0.205285
0.202593
0.264878
0.264906
0.264093
0.262554
0.260249
0.25727
0.253716
0.249606
0.245063
0.240422
0.235974
0.231833
0.227996
0.224406
0.220995
0.217674
0.214417
0.211277
0.208332
0.271738
0.271842
0.271125
0.269724
0.26757
0.264749
0.261334
0.257356
0.252933
0.248343
0.243872
0.239649
0.235683
0.231953
0.228368
0.224814
0.221296
0.217867
0.21462
0.278942
0.279126
0.278519
0.27728
0.275309
0.272685
0.269453
0.265657
0.261413
0.256935
0.252492
0.248221
0.244164
0.240302
0.236514
0.232707
0.228888
0.225115
0.221501
0.286444
0.286713
0.286233
0.285181
0.283428
0.281048
0.278051
0.274497
0.270501
0.266208
0.261864
0.257603
0.253502
0.24952
0.24552
0.241439
0.237275
0.233088
0.22902
0.294194
0.294554
0.294216
0.293379
0.291882
0.289795
0.287093
0.283853
0.280185
0.276165
0.272008
0.267843
0.263754
0.259675
0.25548
0.251108
0.246542
0.24185
0.23721
0.302137
0.302591
0.302414
0.301817
0.300615
0.29887
0.296533
0.293692
0.290439
0.286794
0.282927
0.278968
0.274969
0.270845
0.266486
0.261808
0.25677
0.251454
0.246085
0.310211
0.310764
0.310761
0.310433
0.309564
0.3082
0.30631
0.30397
0.301215
0.298059
0.29461
0.290978
0.287174
0.283093
0.278618
0.273622
0.268026
0.261925
0.255617
0.318349
0.319003
0.31919
0.319154
0.318659
0.317719
0.31635
0.314603
0.312439
0.30989
0.307006
0.303843
0.300366
0.296447
0.291927
0.286607
0.280342
0.273249
0.2657
0.32648
0.327237
0.327624
0.327901
0.327817
0.327355
0.326557
0.325465
0.324
0.322182
0.320012
0.317479
0.314493
0.310886
0.306416
0.300777
0.293701
0.285369
0.276106
0.33453
0.335388
0.335984
0.336585
0.33694
0.336998
0.33681
0.336428
0.335757
0.334787
0.333474
0.331741
0.329432
0.326312
0.322018
0.316064
0.308028
0.298217
0.286454
0.342424
0.34338
0.344184
0.345115
0.345917
0.346522
0.346973
0.347343
0.347537
0.347511
0.347177
0.346404
0.344968
0.342532
0.33857
0.332331
0.323246
0.311771
0.296161
0.350086
0.351133
0.352141
0.353393
0.354638
0.355797
0.356899
0.358037
0.359129
0.360106
0.360844
0.361165
0.360779
0.359228
0.35577
0.349362
0.339218
0.325442
0.303233
0.357441
0.358575
0.359773
0.361329
0.362994
0.364693
0.366432
0.36832
0.370303
0.372292
0.374139
0.375633
0.376427
0.375942
0.373187
0.366932
0.355636
0.337297
0.303186
0.364416
0.365642
0.367005
0.368832
0.370879
0.373082
0.375415
0.377997
0.380815
0.383763
0.386681
0.389338
0.391344
0.392027
0.39024
0.384725
0.37253
0.348793
0.299367
0.370938
0.372286
0.373771
0.375829
0.378202
0.380849
0.383705
0.38689
0.390434
0.394222
0.398084
0.40178
0.404881
0.406669
0.40611
0.401872
0.39089
0.366738
0.302232
0.376575
0.377829
0.379335
0.381558
0.384157
0.387132
0.39037
0.393984
0.398045
0.402425
0.406948
0.411365
0.415216
0.417801
0.418449
0.415599
0.407776
0.381393
0.314606
0.381272
0.38231
0.383845
0.386169
0.388918
0.39212
0.395622
0.39952
0.403915
0.408668
0.413594
0.418423
0.422674
0.425753
0.427393
0.426805
0.42273
0.386898
0.302187
0.385429
0.386397
0.388007
0.390399
0.393256
0.396626
0.400321
0.404408
0.409015
0.413988
0.419124
0.424118
0.428478
0.431766
0.434068
0.436401
0.435403
0.397609
0.29623
0.397567
0.406483
0.410337
0.412062
0.413206
0.414372
0.41586
0.417826
0.420348
0.423457
0.427153
0.431414
0.4362
0.441428
0.446877
0.452117
0.456723
0.460435
0.462275
0.462142
0.461925
0.411686
0.411464
0.412166
0.412636
0.413201
0.414027
0.415273
0.417032
0.419361
0.422279
0.425773
0.429809
0.434335
0.439267
0.444439
0.449575
0.454365
0.458427
0.461034
0.461853
0.461834
0.41876
0.415517
0.41393
0.413249
0.413171
0.413598
0.414574
0.416129
0.41828
0.421026
0.424339
0.428172
0.432456
0.437091
0.441933
0.446793
0.451458
0.455674
0.459092
0.461136
0.461435
0.42171
0.417511
0.414837
0.413352
0.412728
0.412773
0.413461
0.414785
0.416731
0.419277
0.422384
0.425994
0.430029
0.434385
0.438933
0.443519
0.447971
0.452148
0.455986
0.458969
0.45997
0.422209
0.417886
0.414824
0.412904
0.411895
0.411638
0.412075
0.413178
0.414917
0.417256
0.420144
0.423517
0.427291
0.431361
0.435611
0.439909
0.444112
0.448135
0.452008
0.455346
0.456859
0.42124
0.417121
0.414003
0.411895
0.410665
0.410192
0.410426
0.411333
0.412875
0.415008
0.417678
0.420815
0.424332
0.428127
0.432087
0.436093
0.440018
0.443798
0.447485
0.450784
0.452426
0.419396
0.415584
0.412568
0.410427
0.409097
0.408487
0.408565
0.409304
0.410665
0.412603
0.415061
0.417967
0.421237
0.424768
0.428449
0.432166
0.435798
0.439276
0.442633
0.445651
0.447224
0.417037
0.413544
0.410706
0.408632
0.40727
0.406579
0.406544
0.407143
0.408342
0.410098
0.412354
0.41504
0.418071
0.421348
0.424762
0.428196
0.431533
0.434688
0.43766
0.440288
0.441688
0.414381
0.411195
0.408574
0.406611
0.405259
0.404527
0.404411
0.404896
0.405953
0.407541
0.409607
0.412084
0.414888
0.417923
0.42108
0.424242
0.42729
0.430124
0.432711
0.434932
0.436117
0.41157
0.408677
0.406283
0.40444
0.40313
0.402386
0.402214
0.402606
0.403538
0.404974
0.406864
0.409144
0.411734
0.414539
0.417451
0.420355
0.423128
0.425659
0.427892
0.429735
0.430703
0.408721
0.406097
0.403918
0.402193
0.400941
0.400205
0.399996
0.400311
0.401133
0.402432
0.404159
0.406256