/*--------------------------------*- C++ -*----------------------------------*\
| =========                 |                                                 |
| \\      /  F ield         | OpenFOAM: The Open Source CFD Toolbox           |
|  \\    /   O peration     | Version:  v2012                                 |
|   \\  /    A nd           | Website:  www.openfoam.com                      |
|    \\/     M anipulation  |                                                 |
\*---------------------------------------------------------------------------*/
FoamFile
{
    version     2.0;
    format      ascii;
    class       surfaceScalarField;
    location    "622";
    object      phi;
}
// * * * * * * * * * * * * * * * * * * * * * * * * * * * * * * * * * * * * * //

dimensions      [0 3 -1 0 0 0 0];
oriented        oriented;


internalField   nonuniform List<scalar> 
11870
(
-0.000198848
-2.32945e-08
0.000198872
-0.000198844
-4.3168e-09
-0.000198856
1.19493e-08
-0.000198881
2.48764e-08
-0.000198916
3.53632e-08
-0.00019896
4.35127e-08
-0.00019901
4.98818e-08
-0.000199065
5.49837e-08
-0.000199124
5.92813e-08
-0.000199187
6.31557e-08
-0.000199254
6.69206e-08
-0.000199325
7.08359e-08
-0.0001994
7.50993e-08
-0.00019948
7.9803e-08
-0.000199565
8.48667e-08
-0.000199655
8.98995e-08
-0.000199749
9.39568e-08
-0.000199846
9.71228e-08
-0.00019994
9.47616e-08
5.96101e-08
-0.000200159
-9.58612e-08
0.000200232
-0.000200106
-5.78674e-08
-0.000200067
-2.64417e-08
-0.000200041
-1.55378e-09
-0.000200023
1.76443e-08
-0.000200012
3.21746e-08
-0.000200005
4.31717e-08
-0.000200002
5.15871e-08
-0.000200001
5.82931e-08
-0.000200002
6.39681e-08
-0.000200004
6.91412e-08
-0.000200007
7.4218e-08
-0.000200012
7.9469e-08
-0.000200017
8.49627e-08
-0.000200022
9.03742e-08
-0.000200027
9.49579e-08
-0.000200031
9.7862e-08
-0.000200031
9.72549e-08
-0.00020002
8.31631e-08
3.98151e-08
-0.000200506
-1.81429e-07
0.000200591
-0.00020044
-1.23529e-07
-0.00020039
-7.70378e-08
-0.00020035
-4.096e-08
-0.000200319
-1.39783e-08
-0.000200292
5.93071e-09
-0.00020027
2.05271e-08
-0.000200249
3.12145e-08
-0.00020023
3.929e-08
-0.000200212
4.56819e-08
-0.000200194
5.10819e-08
-0.000200176
5.59877e-08
-0.000200157
6.07243e-08
-0.000200137
6.54444e-08
-0.000200117
6.97922e-08
-0.000200095
7.25462e-08
-0.00020007
7.35856e-08
-0.000200043
7.03397e-08
-0.000200016
5.5925e-08
2.37393e-08
-0.000200633
-2.71186e-07
0.000200723
-0.000200565
-1.91408e-07
-0.000200512
-1.29749e-07
-0.00020047
-8.30605e-08
-0.000200435
-4.93066e-08
-0.000200404
-2.5142e-08
-0.000200375
-7.98266e-09
-0.000200348
4.04672e-09
-0.000200321
1.26333e-08
-0.000200295
1.89275e-08
-0.000200267
2.37511e-08
-0.000200239
2.76814e-08
-0.000200209
3.10935e-08
-0.000200178
3.41657e-08
-0.000200145
3.67126e-08
-0.000200111
3.82171e-08
-0.000200076
3.84914e-08
-0.000200041
3.5899e-08
-0.000200013
2.74976e-08
1.10891e-08
-0.000200656
-3.59782e-07
0.000200745
-0.000200593
-2.54753e-07
-0.000200545
-1.78149e-07
-0.000200506
-1.21899e-07
-0.000200472
-8.26759e-08
-0.000200442
-5.55823e-08
-0.000200413
-3.71397e-08
-0.000200384
-2.47362e-08
-0.000200355
-1.64277e-08
-0.000200325
-1.08876e-08
-0.000200294
-7.21218e-09
-0.000200262
-4.76813e-09
-0.000200228
-3.13996e-09
-0.000200191
-2.06236e-09
-0.000200153
-1.3573e-09
-0.000200114
-8.87763e-10
-0.000200075
-5.62433e-10
-0.000200039
-3.36164e-10
-0.000200011
-1.75931e-10
-5.8302e-11
-0.000200605
-4.43506e-07
0.000200688
-0.000200553
-3.06541e-07
-0.000200515
-2.16189e-07
-0.000200485
-1.52054e-07
-0.000200458
-1.09512e-07
-0.000200432
-8.13572e-08
-0.000200406
-6.30272e-08
-0.00020038
-5.129e-08
-0.000200352
-4.39887e-08
-0.000200323
-3.96918e-08
-0.000200293
-3.75003e-08
-0.000200261
-3.67704e-08
-0.000200227
-3.70757e-08
-0.000200191
-3.80895e-08
-0.000200153
-3.92962e-08
-0.000200114
-3.99112e-08
-0.000200075
-3.9562e-08
-0.000200039
-3.65352e-08
-0.000200011
-2.78227e-08
-1.11961e-08
-0.000200474
-5.22594e-07
0.000200553
-0.000200444
-3.3668e-07
-0.000200423
-2.36737e-07
-0.000200407
-1.67791e-07
-0.000200392
-1.25239e-07
-0.000200375
-9.84859e-08
-0.000200356
-8.19404e-08
-0.000200335
-7.19365e-08
-0.000200313
-6.62972e-08
-0.000200289
-6.35261e-08
-0.000200264
-6.28672e-08
-0.000200237
-6.37702e-08
-0.000200208
-6.58413e-08
-0.000200177
-6.87879e-08
-0.000200144
-7.19951e-08
-0.00020011
-7.40029e-08
-0.000200075
-7.45033e-08
-0.000200041
-7.08809e-08
-0.000200013
-5.61712e-08
-2.38193e-08
-0.000200225
-5.99523e-07
0.000200302
-0.000200236
-3.2592e-07
-0.000200243
-2.29507e-07
-0.000200249
-1.61562e-07
-0.00020025
-1.24232e-07
-0.000200246
-1.02118e-07
-0.000200239
-8.92384e-08
-0.000200229
-8.20078e-08
-0.000200217
-7.84738e-08
-0.000200203
-7.72659e-08
-0.000200188
-7.78524e-08
-0.000200172
-7.99341e-08
-0.000200155
-8.32227e-08
-0.000200136
-8.74239e-08
-0.000200116
-9.20032e-08
-0.000200094
-9.60256e-08
-0.00020007
-9.85333e-08
-0.000200043
-9.7684e-08
-0.000200016
-8.32882e-08
-3.98533e-08
-0.000199722
-6.2944e-07
0.000199752
-0.000199807
-2.41153e-07
-0.000199864
-1.72507e-07
-0.000199905
-1.20443e-07
-0.000199933
-9.65893e-08
-0.000199952
-8.30326e-08
-0.000199966
-7.56795e-08
-0.000199976
-7.19276e-08
-0.000199984
-7.04635e-08
-0.00019999
-7.04909e-08
-0.000199997
-7.17083e-08
-0.000200003
-7.397e-08
-0.000200009
-7.71545e-08
-0.000200015
-8.11506e-08
-0.000200021
-8.57542e-08
-0.000200027
-9.04762e-08
-0.000200031
-9.43265e-08
-0.000200031
-9.7372e-08
-0.00020002
-9.47869e-08
-5.96207e-08
-0.000198171
0.000197542
-0.000198413
-0.000198585
-0.000198705
-0.000198802
-0.000198885
-0.000198961
-0.000199033
-0.000199103
-0.000199174
-0.000199245
-0.000199319
-0.000199397
-0.000199478
-0.000199563
-0.000199654
-0.000199748
-0.000199846
-0.00019994
-0.000177469
4.94823e-06
0.000172521
-0.000181767
4.29786e-06
-0.000185464
3.69633e-06
-0.000188602
3.1386e-06
-0.000191228
2.6256e-06
-0.000193386
2.15833e-06
-0.000195124
1.73743e-06
-0.000196487
1.36309e-06
-0.000197522
1.03502e-06
-0.000198274
7.52656e-07
-0.00019879
5.15321e-07
-0.000199112
3.21937e-07
-0.000199282
1.70379e-07
-0.000199339
5.71327e-08
-0.000199318
-2.14615e-08
-0.000199249
-6.84767e-08
-0.000199158
-9.14893e-08
-0.000199064
-9.38704e-08
-0.000198981
-8.29181e-08
-0.000198916
-6.49666e-08
-4.42391e-08
-0.000181834
9.54779e-06
0.000177234
-0.000185826
8.2898e-06
-0.000189241
7.11146e-06
-0.000192119
6.01683e-06
-0.000194503
5.00987e-06
-0.000196438
4.09312e-06
-0.000197969
3.26815e-06
-0.000199141
2.53544e-06
-0.000200001
1.89452e-06
-0.000200593
1.34442e-06
-0.000200961
8.83871e-07
-0.00020115
5.10914e-07
-0.000201201
2.2152e-07
-0.000201153
9.13585e-09
-0.00020104
-1.34205e-07
-0.000200892
-2.17286e-07
-0.000200732
-2.51592e-07
-0.000200577
-2.48252e-07
-0.00020044
-2.20166e-07
-0.000200325
-1.80151e-07
-1.37043e-07
-0.000183375
1.40216e-05
0.000178901
-0.000187252
1.21663e-05
-0.000190564
1.04239e-05
-0.00019335
8.80316e-06
-0.000195651
7.31071e-06
-0.000197509
5.95107e-06
-0.000198968
4.72717e-06
-0.000200073
3.64009e-06
-0.000200868
2.68932e-06
-0.000201397
1.87365e-06
-0.000201705
1.19165e-06
-0.000201835
6.41337e-07
-0.00020183
2.1679e-07
-0.00020173
-9.14607e-08
-0.000201568
-2.95863e-07
-0.000201376
-4.09744e-07
-0.000201178
-4.49539e-07
-0.000200993
-4.33346e-07
-0.000200832
-3.80843e-07
-0.000200699
-3.13075e-07
-2.44538e-07
-0.000184329
1.84441e-05
0.000179906
-0.000188158
1.59962e-05
-0.000191428
1.36932e-05
-0.000194173
1.15482e-05
-0.000196433
9.57084e-06
-0.00019825
7.76778e-06
-0.000199666
6.14364e-06
-0.000200726
4.70021e-06
-0.000201473
3.43666e-06
-0.000201952
2.35206e-06
-0.000202205
1.44501e-06
-0.000202279
7.14917e-07
-0.000202217
1.54819e-07
-0.000202061
-2.47243e-07
-0.000201848
-5.09303e-07
-0.000201609
-6.48133e-07
-0.000201373
-6.85627e-07
-0.000201159
-6.47438e-07
-0.00020098
-5.60332e-07
-0.000200836
-4.56342e-07
-3.58331e-07
-0.000185046
2.28402e-05
0.00018065
-0.00018885
1.98009e-05
-0.000192095
1.69378e-05
-0.000194816
1.42687e-05
-0.000197051
1.18059e-05
-0.000198841
9.5577e-06
-0.000200227
7.53054e-06
-0.000201255
5.72728e-06
-0.000201964
4.14654e-06
-0.000202401
2.78842e-06
-0.000202606
1.64976e-06
-0.000202623
7.32217e-07
-0.000202501
3.31069e-08
-0.000202287
-4.61821e-07
-0.000202017
-7.79351e-07
-0.000201727
-9.38097e-07
-0.000201448
-9.63904e-07
-0.000201203
-8.9256e-07
-0.000201006
-7.57138e-07
-0.000200859
-6.04091e-07
-4.71957e-07
-0.000185422
2.72042e-05
0.000181058
-0.000189198
2.35767e-05
-0.000192419
2.01587e-05
-0.000195122
1.69715e-05
-0.000197345
1.40286e-05
-0.000199126
1.13386e-05
-0.000200503
8.90826e-06
-0.00020152
6.74435e-06
-0.000202221
4.84766e-06
-0.000202646
3.21277e-06
-0.000202832
1.83626e-06
-0.000202818
7.17972e-07
-0.000202651
-1.34319e-07
-0.000202388
-7.2405e-07
-0.000202071
-1.09657e-06
-0.000201734
-1.27513e-06
-0.000201417
-1.28106e-06
-0.000201143
-1.16673e-06
-0.000200932
-9.67482e-07
-0.000200792
-7.4462e-07
-5.75571e-07
-0.000185065
3.14792e-05
0.00018079
-0.000188764
2.72755e-05
-0.000191926
2.3321e-05
-0.000194594
1.96389e-05
-0.000196807
1.6242e-05
-0.000198605
1.31361e-05
-0.000200019
1.03227e-05
-0.000201077
7.80219e-06
-0.000201819
5.59018e-06
-0.000202299
3.69203e-06
-0.000202545
2.083e-06
-0.000202586
7.5896e-07
-0.000202458
-2.62636e-07
-0.0002022
-9.82682e-07
-0.000201879
-1.41691e-06
-0.000201542
-1.61196e-06
-0.000201218
-1.60497e-06
-0.000200937
-1.4483e-06
-0.00020073
-1.17444e-06
-0.000200628
-8.46413e-07
-6.50736e-07
-0.000183158
3.54892e-05
0.000179148
-0.000186614
3.07316e-05
-0.000189573
2.62799e-05
-0.000192091
2.2157e-05
-0.000194221
1.83714e-05
-0.000196005
1.49201e-05
-0.000197476
1.17936e-05
-0.000198668
8.99427e-06
-0.000199608
6.53001e-06
-0.000200302
4.38673e-06
-0.000200771
2.55144e-06
-0.000201037
1.0257e-06
-0.000201119
-1.81344e-07
-0.000201064
-1.03726e-06
-0.000200953
-1.52808e-06
-0.000200791
-1.77366e-06
-0.000200601
-1.79539e-06
-0.00020042
-1.62883e-06
-0.000200291
-1.30425e-06
-0.000200295
-8.42082e-07
-6.43778e-07
-0.000178205
3.88015e-05
0.000174893
-0.000180976
3.35026e-05
-0.000183295
2.85989e-05
-0.000185251
2.41123e-05
-0.000186924
2.00452e-05
-0.00018839
1.63854e-05
-0.000189709
1.31131e-05
-0.000190928
1.02126e-05
-0.000192067
7.66928e-06
-0.000193139
5.45885e-06
-0.000194136
3.5483e-06
-0.000195043
1.93234e-06
-0.00019584
6.15708e-07
-0.000196559
-3.17365e-07
-0.000197236
-8.51882e-07
-0.000197822
-1.18749e-06
-0.000198299
-1.31801e-06
-0.000198706
-1.22193e-06
-0.000199009
-1.00137e-06
-0.000199238
-6.13289e-07
-1.29166e-07
-0.000168083
0.00016628
4.06045e-05
-0.000169287
3.47065e-05
-0.000170011
2.93226e-05
-0.000170369
2.44707e-05
-0.00017047
2.01461e-05
-0.000170415
1.63308e-05
-0.000170304
1.30023e-05
-0.000170234
1.01426e-05
-0.000170307
7.74162e-06
-0.000170666
5.81807e-06
-0.000171376
4.25791e-06
-0.000172482
3.03865e-06
-0.000174023
2.15632e-06
-0.000176015
1.67551e-06
-0.000178437
1.57009e-06
-0.000181228
1.6029e-06
-0.000184252
1.7061e-06
-0.000187391
1.91756e-06
-0.000190342
1.94943e-06
-0.000192653
1.69767e-06
4.75964e-06
7.47369e-06
-7.4737e-06
9.22826e-06
-1.75459e-06
6.33229e-06
2.89595e-06
2.12446e-07
6.11983e-06
-1.02512e-05
1.04636e-05
-2.56757e-05
1.54245e-05
-4.34318e-05
1.77561e-05
-6.05824e-05
1.71506e-05
-7.61508e-05
1.55684e-05
-9.03338e-05
1.4183e-05
-0.000103297
1.29632e-05
-0.000115155
1.18581e-05
-0.000125994
1.08386e-05
-0.000135877
9.88355e-06
-0.000144856
8.97881e-06
-0.000152972
8.11576e-06
-0.000160262
7.29048e-06
-0.000166765
6.50311e-06
5.75585e-06
4.34225e-06
-1.1816e-05
2.26108e-06
3.26577e-07
-4.56132e-06
9.71835e-06
-1.67225e-05
1.8281e-05
-3.26224e-05
2.63635e-05
-4.87256e-05
3.15277e-05
-6.33099e-05
3.23404e-05
-7.68391e-05
3.06798e-05
-8.98629e-05
2.85922e-05
-0.000102161
2.64812e-05
-0.000113643
2.4445e-05
-0.000124306
2.25207e-05
-0.000134161
2.06945e-05
-0.000143226
1.89479e-05
-0.000151513
1.72664e-05
-0.000159039
1.56415e-05
-0.000165821
1.4072e-05
-0.000171878
1.25609e-05
1.11117e-05
-1.01345e-06
-1.08025e-05
-7.44122e-06
6.75434e-06
-1.82111e-05
2.04883e-05
-3.23173e-05
3.23871e-05
-4.69467e-05
4.0993e-05
-6.01995e-05
4.47805e-05
-7.24053e-05
4.45462e-05
-8.43333e-05
4.26078e-05
-9.59801e-05
4.02391e-05
-0.000107174
3.76755e-05
-0.000117822
3.50925e-05
-0.000127855
3.25537e-05
-0.000137232
3.00712e-05
-0.000145926
2.76423e-05
-0.000153922
2.52625e-05
-0.000161213
2.29324e-05
-0.0001678
2.06585e-05
-0.00017369
1.84514e-05
1.63228e-05
-6.52091e-06
-4.28162e-06
-1.63582e-05
1.65916e-05
-2.90006e-05
3.31307e-05
-4.26273e-05
4.60137e-05
-5.52581e-05
5.36239e-05
-6.66612e-05
5.61836e-05
-7.76813e-05
5.55662e-05
-8.86871e-05
5.36136e-05
-9.95252e-05
5.10772e-05
-0.000110068
4.8218e-05
-0.000120209
4.52336e-05
-0.000129859
4.22036e-05
-0.00013895
3.91625e-05
-0.000147433
3.6125e-05
-0.000155272
3.31013e-05
-0.000162444
3.01047e-05
-0.000168938
2.71531e-05
-0.000174755
2.42684e-05
2.14734e-05
-1.06576e-05
6.37596e-06
-2.28752e-05
2.88092e-05
-3.60717e-05
4.63271e-05
-4.86914e-05
5.86335e-05
-5.99966e-05
6.49291e-05
-7.05389e-05
6.67258e-05
-8.09884e-05
6.60158e-05
-9.14507e-05
6.40758e-05
-0.000101802
6.14284e-05
-0.000111941
5.83571e-05
-0.000121761
5.50535e-05
-0.000131167
5.16095e-05
-0.00014008
4.80756e-05
-0.000148436
4.44815e-05
-0.000156187
4.08521e-05
-0.000163298
3.7215e-05
-0.000169747
3.36024e-05
-0.000175529
3.00501e-05
2.65945e-05
-1.34182e-05
1.97942e-05
-2.70312e-05
4.24222e-05
-4.01492e-05
5.94451e-05
-5.19556e-05
7.04399e-05
-6.26104e-05
7.55839e-05
-7.28224e-05
7.69379e-05
-8.29978e-05
7.61911e-05
-9.31541e-05
7.42321e-05
-0.000103217
7.14915e-05
-0.000113106
6.82459e-05
-0.000122723
6.46704e-05
-0.000131975
6.08614e-05
-0.000140777
5.68773e-05
-0.000149054
5.27594e-05
-0.000156749
4.85463e-05
-0.000163815
4.42812e-05
-0.000170226
4.00136e-05
-0.000175972
3.57961e-05
3.1681e-05
-1.50552e-05
3.48493e-05
-2.92718e-05
5.66389e-05
-4.21109e-05
7.22842e-05
-5.34551e-05
8.17841e-05
-6.38817e-05
8.60105e-05
-7.39998e-05
8.7056e-05
-8.40477e-05
8.62391e-05
-9.40385e-05
8.42229e-05
-0.000103933
8.13862e-05
-0.000113666
7.7979e-05
-0.000123151
7.41556e-05
-0.000132297
7.00068e-05
-0.000141012
6.55925e-05
-0.000149214
6.09617e-05
-0.000156835
5.61666e-05
-0.000163822
5.12687e-05
-0.000170147
4.6338e-05
-0.000175799
4.14487e-05
3.66722e-05
-1.59844e-05
5.08337e-05
-3.01714e-05
7.08258e-05
-4.27049e-05
8.48177e-05
-5.38378e-05
9.29169e-05
-6.42324e-05
9.64051e-05
-7.43431e-05
9.71667e-05
-8.4332e-05
9.62279e-05
-9.42292e-05
9.41201e-05
-0.000104017
9.11735e-05
-0.000113639
8.76018e-05
-0.000123017
8.3533e-05
-0.000132054
7.90441e-05
-0.000140652
7.41903e-05
-0.000148716
6.90263e-05
-0.000156169
6.36193e-05
-0.000162954
5.80534e-05
-0.000169042
5.24259e-05
-0.000174432
4.68388e-05
4.13885e-05
-1.62161e-05
6.70499e-05
-3.01699e-05
8.47796e-05
-4.24449e-05
9.70927e-05
-5.34848e-05
0.000103957
-6.39013e-05
0.000106822
-7.40182e-05
0.000107284
-8.39671e-05
0.000106177
-9.37927e-05
0.000103946
-0.000103486
0.000100867
-0.000112996
9.7111e-05
-0.000122235
9.27727e-05
-0.000131098
8.79071e-05
-0.000139468
8.25599e-05
-0.000147232
7.67904e-05
-0.000154298
7.06848e-05
-0.000160602
6.4358e-05
-0.000166121
5.7945e-05
-0.000170869
5.15865e-05
4.54126e-05
-1.5874e-05
8.29239e-05
-2.9565e-05
9.84706e-05
-4.164e-05
0.000109168
-5.26199e-05
0.000114937
-6.30372e-05
0.000117239
-7.31336e-05
0.00011738
-8.30249e-05
0.000116068
-9.27602e-05
0.000113681
-0.000102329
0.000110436
-0.000111669
0.000106451
-0.000120676
0.00010178
-0.000129215
9.64461e-05
-0.000137137
9.04811e-05
-0.000144296
8.39499e-05
-0.000150577
7.69659e-05
-0.000155908
6.96889e-05
-0.000160271
6.23081e-05
-0.000163702
5.50173e-05
4.79903e-05
-0.000160385
3.99212e-05
0.000161068
-0.00015895
3.3272e-05
-0.000156892
2.72642e-05
-0.000154308
2.18867e-05
-0.000151265
1.71032e-05
-0.000147799
1.28655e-05
-0.000143919
9.12149e-06
-0.000139596
5.82025e-06
-0.000134781
2.92621e-06
-0.000129422
4.59197e-07
-0.000123469
-1.69507e-06
-0.000116856
-3.57412e-06
-0.000109558
-5.14247e-06
-0.000101513
-6.369e-06
-9.26158e-05
-7.32714e-06
-8.27079e-05
-8.30493e-06
-7.16545e-05
-9.34734e-06
-5.98929e-05
-9.84406e-06
-4.76995e-05
-1.02439e-05
-3.16022e-05
-1.43996e-05
-2.68425e-05
-0.000136082
3.64783e-05
0.000139525
-0.000131996
2.91861e-05
-0.000127419
2.26871e-05
-0.000122457
1.69252e-05
-0.000117178
1.18241e-05
-0.000111618
7.30561e-06
-0.000105797
3.29985e-06
-9.97196e-05
-2.56942e-07
-9.33926e-05
-3.40075e-06
-8.67889e-05
-6.14452e-06
-7.9854e-05
-8.62994e-06
-7.25238e-05
-1.09044e-05
-6.47754e-05
-1.28908e-05
-5.64614e-05
-1.4683e-05
-4.73012e-05
-1.64874e-05
-3.72929e-05
-1.83132e-05
-2.68174e-05
-1.98229e-05
-1.61144e-05
-2.0547e-05
-5.25223e-06
-2.11061e-05
3.05107e-06
-2.27029e-05
-2.37915e-05
-0.000110916
3.14103e-05
0.000115984
-0.00010568
2.395e-05
-0.000100459
1.74665e-05
-9.53787e-05
1.18448e-05
-9.05132e-05
6.95849e-06
-8.58895e-05
2.68195e-06
-8.14825e-05
-1.10717e-06
-7.71983e-05
-4.54113e-06
-7.28751e-05
-7.72397e-06
-6.82865e-05
-1.07331e-05
-6.33246e-05
-1.35919e-05
-5.79627e-05
-1.62663e-05
-5.20978e-05
-1.87557e-05
-4.56607e-05
-2.11201e-05
-3.87376e-05
-2.34104e-05
-3.14884e-05
-2.55624e-05
-2.39812e-05
-2.73302e-05
-1.60145e-05
-2.85138e-05
-7.90305e-06
-2.92175e-05
-1.5181e-06
-2.90879e-05
-2.53096e-05
-8.99154e-05
2.66137e-05
9.47119e-05
-8.56621e-05
1.96967e-05
-8.20551e-05
1.38595e-05
-7.90675e-05
8.85719e-06
-7.65559e-05
4.44694e-06
-7.42939e-05
4.19937e-07
-7.20225e-05
-3.37859e-06
-6.95301e-05
-7.03349e-06
-6.66758e-05
-1.05783e-05
-6.3376e-05
-1.4033e-05
-5.95877e-05
-1.73801e-05
-5.52523e-05
-2.06017e-05
-5.03222e-05
-2.36858e-05
-4.48116e-05
-2.66307e-05
-3.87844e-05
-2.94376e-05
-3.22969e-05
-3.20499e-05
-2.54e-05
-3.4227e-05
-1.81391e-05
-3.57746e-05
-1.08568e-05
-3.64999e-05
-4.43818e-06
-3.55065e-05
-2.97478e-05
-7.58654e-05
2.36789e-05
7.88003e-05
-7.38488e-05
1.76801e-05
-7.25273e-05
1.25379e-05
-7.1578e-05
7.90797e-06
-7.06828e-05
3.55169e-06
-6.95986e-05
-6.64303e-07
-6.8177e-05
-4.80019e-06
-6.63368e-05
-8.87364e-06
-6.40199e-05
-1.28952e-05
-6.11899e-05
-1.6863e-05
-5.78142e-05
-2.07558e-05
-5.38653e-05
-2.45506e-05
-4.93273e-05
-2.82238e-05
-4.42113e-05
-3.17467e-05
-3.85749e-05
-3.5074e-05
-3.25126e-05
-3.81122e-05
-2.60765e-05
-4.06631e-05
-1.93337e-05
-4.25174e-05
-1.24813e-05
-4.33522e-05
-5.91507e-06
-4.20728e-05
-3.56628e-05
-6.78581e-05
2.28336e-05
6.87033e-05
-6.76368e-05
1.74589e-05
-6.76391e-05
1.25402e-05
-6.75577e-05
7.82651e-06
-6.72055e-05
3.19954e-06
-6.64836e-05
-1.3862e-06
-6.53378e-05
-5.94603e-06
-6.37295e-05
-1.0482e-05
-6.16295e-05
-1.49952e-05
-5.90172e-05
-1.94753e-05
-5.58727e-05
-2.39002e-05
-5.21811e-05
-2.82422e-05
-4.79365e-05
-3.24684e-05
-4.31527e-05
-3.65305e-05
-3.78797e-05
-4.03471e-05
-3.22012e-05
-4.37907e-05
-2.61597e-05
-4.67046e-05
-1.98068e-05
-4.88703e-05
-1.32551e-05
-4.9904e-05
-6.63359e-06
-4.86943e-05
-4.22964e-05
-6.31209e-05
2.32948e-05
6.26596e-05
-6.37183e-05
1.80563e-05
-6.41697e-05
1.29916e-05
-6.43284e-05
7.98522e-06
-6.4125e-05
2.99609e-06
-6.35213e-05
-1.98986e-06
-6.24893e-05
-6.97805e-06
-6.1004e-05
-1.19672e-05
-5.9046e-05
-1.69532e-05
-5.65994e-05
-2.1922e-05
-5.36501e-05
-2.68495e-05
-5.01894e-05
-3.17029e-05
-4.62178e-05
-3.644e-05
-4.17486e-05
-4.09997e-05
-3.6813e-05
-4.52826e-05
-3.14724e-05
-4.91312e-05
-2.57718e-05
-5.24053e-05
-1.97432e-05
-5.48989e-05
-1.34513e-05
-5.61958e-05
-6.89317e-06
-5.52525e-05
-4.91896e-05
-5.95858e-05
2.42866e-05
5.8594e-05
-6.04179e-05
1.88884e-05
-6.09632e-05
1.35369e-05
-6.11678e-05
8.18982e-06
-6.10039e-05
2.8322e-06
-6.04505e-05
-2.54321e-06
-5.94887e-05
-7.93986e-06
-5.81003e-05
-1.33557e-05
-5.62691e-05
-1.87843e-05
-5.39803e-05
-2.42108e-05
-5.12209e-05
-2.96089e-05
-4.79834e-05
-3.49405e-05
-4.42688e-05
-4.01545e-05
-4.00891e-05
-4.51795e-05
-3.54644e-05
-4.99073e-05
-3.04333e-05
-5.41624e-05
-2.50386e-05
-5.77999e-05
-1.9306e-05
-6.06315e-05
-1.3268e-05
-6.22338e-05
-6.87377e-06
-6.16467e-05
-5.60634e-05
-5.636e-05
2.54021e-05
5.52445e-05
-5.72072e-05
1.97356e-05
-5.77389e-05
1.40686e-05
-5.79339e-05
8.38482e-06
-5.77771e-05
2.67536e-06
-5.72546e-05
-3.06569e-06
-5.63526e-05
-8.84188e-06
-5.50562e-05
-1.4652e-05
-5.33502e-05
-2.04903e-05
-5.1219e-05
-2.6342e-05
-4.86481e-05
-3.21797e-05
-4.56279e-05
-3.79608e-05
-4.21573e-05
-4.3625e-05
-3.82465e-05
-4.90904e-05
-3.39128e-05
-5.42409e-05
-2.91727e-05
-5.89025e-05
-2.40616e-05
-6.29111e-05
-1.86123e-05
-6.60809e-05
-1.28396e-05
-6.80064e-05
-6.68389e-06
-6.78024e-05
-6.27472e-05
-5.31745e-05
2.64867e-05
5.20899e-05
-5.39687e-05
2.05298e-05
-5.44548e-05
1.45547e-05
-5.46222e-05
8.55227e-06
-5.44622e-05
2.51527e-06
-5.39653e-05
-3.56257e-06
-5.31209e-05
-9.68626e-06
-5.19159e-05
-1.5857e-05
-5.03349e-05
-2.20713e-05
-4.83612e-05
-2.83157e-05
-4.5978e-05
-3.4563e-05
-4.31717e-05
-4.07671e-05
-3.99365e-05
-4.68602e-05
-3.62789e-05
-5.2748e-05
-3.22152e-05
-5.83046e-05
-2.77537e-05
-6.3364e-05
-2.29191e-05
-6.77457e-05
-1.77502e-05
-7.12498e-05
-1.22578e-05
-7.34989e-05
-6.39097e-06
-7.36692e-05
-6.91382e-05
-4.99759e-05
2.74905e-05
4.89721e-05
-5.06962e-05
2.12501e-05
-5.11258e-05
1.49843e-05
-5.12596e-05
8.68612e-06
-5.10931e-05
2.34875e-06
-5.06202e-05
-4.03549e-06
-4.98323e-05
-1.04742e-05
-4.87173e-05
-1.6972e-05
-4.72599e-05
-2.35286e-05
-4.54421e-05
-3.01336e-05
-4.32445e-05
-3.67605e-05
-4.06498e-05
-4.33619e-05
-3.76466e-05
-4.98634e-05
-3.4234e-05
-5.61606e-05
-3.04231e-05
-6.21155e-05
-2.62273e-05
-6.75598e-05
-2.16677e-05
-7.23052e-05
-1.67818e-05
-7.61357e-05
-1.15834e-05
-7.86972e-05
-6.03756e-06
-7.92151e-05
-7.51758e-05
-4.67705e-05
2.83983e-05
4.58627e-05
-4.74103e-05
2.18899e-05
-4.77799e-05
1.5354e-05
-4.78785e-05
8.78467e-06
-4.77044e-05
2.17473e-06
-4.72542e-05
-4.4857e-06
-4.65209e-05
-1.12075e-05
-4.54933e-05
-1.79996e-05
-4.41561e-05
-2.48658e-05
-4.24902e-05
-3.17995e-05
-4.04742e-05
-3.87766e-05
-3.80868e-05
-4.57492e-05
-3.53114e-05
-5.26389e-05
-3.21402e-05
-5.93318e-05
-2.85776e-05
-6.56781e-05
-2.46395e-05
-7.14979e-05
-2.03518e-05
-7.65929e-05
-1.57511e-05
-8.07364e-05
-1.0857e-05
-8.35913e-05
-5.65069e-06
-8.44214e-05
-8.08265e-05
-4.35788e-05
2.92062e-05
4.27708e-05
-4.41368e-05
2.24479e-05
-4.44463e-05
1.56635e-05
-4.45096e-05
8.84791e-06
-4.43274e-05
1.99262e-06
-4.38983e-05
-4.91484e-06
-4.32166e-05
-1.18892e-05
-4.22722e-05
-1.8944e-05
-4.10502e-05
-2.60879e-05
-3.95306e-05
-3.3319e-05
-3.76903e-05
-4.06169e-05
-3.55046e-05
-4.79349e-05
-3.29518e-05
-5.51917e-05
-3.00181e-05
-6.22655e-05
-2.67027e-05
-6.89935e-05
-2.30207e-05
-7.518e-05
-1.90028e-05
-8.06107e-05
-1.46884e-05
-8.50508e-05
-1.01049e-05
-8.81748e-05
-5.2475e-06
-8.92789e-05
-8.6074e-05
-4.0423e-05
2.99148e-05
3.97144e-05
-4.09005e-05
2.29253e-05
-4.11512e-05
1.59142e-05
-4.11797e-05
8.8764e-06
-4.09889e-05
1.80182e-06
-4.05787e-05
-5.32501e-06
-3.9945e-05
-1.25229e-05
-3.90788e-05
-1.98102e-05
-3.79655e-05
-2.72012e-05
-3.65853e-05
-3.46992e-05
-3.49135e-05
-4.22887e-05
-3.29227e-05
-4.99257e-05
-3.05868e-05
-5.75276e-05
-2.78866e-05
-6.49657e-05
-2.48164e-05
-7.20636e-05
-2.13898e-05
-7.86065e-05
-1.76406e-05
-8.43599e-05
-1.36135e-05
-8.90779e-05
-9.34383e-06
-9.24444e-05
-4.83868e-06
-9.3784e-05
-9.09126e-05
-3.73235e-05
3.05266e-05
3.67117e-05
-3.77229e-05
2.33247e-05
-3.79166e-05
1.61079e-05
-3.7911e-05
8.87083e-06
-3.77107e-05
1.60154e-06
-3.73171e-05
-5.71864e-06
-3.67273e-05
-1.31127e-05
-3.59334e-05
-2.06041e-05
-3.49218e-05
-2.82128e-05
-3.36729e-05
-3.59481e-05
-3.21612e-05
-4.38004e-05
-3.03575e-05
-5.17294e-05
-2.82318e-05
-5.96533e-05
-2.57603e-05
-6.74373e-05
-2.29326e-05
-7.48913e-05
-1.97603e-05
-8.17788e-05
-1.6279e-05
-8.78413e-05
-1.25391e-05
-9.28178e-05
-8.58414e-06
-9.63994e-05
-4.43071e-06
-9.79374e-05
-9.53433e-05
-3.42971e-05
3.1045e-05
3.37787e-05
-3.46213e-05
2.36489e-05
-3.47598e-05
1.62465e-05
-3.47207e-05
8.83176e-06
-3.451e-05
1.3908e-06
-3.41303e-05
-6.09838e-06
-3.358e-05
-1.3663e-05
-3.28524e-05
-2.13317e-05
-3.19349e-05
-2.91303e-05
-3.08085e-05
-3.70745e-05
-2.94477e-05
-4.51611e-05
-2.7822e-05
-5.33551e-05
-2.58988e-05
-6.15764e-05
-2.36502e-05
-6.9686e-05
-2.10614e-05
-7.748e-05
-1.81413e-05
-8.46989e-05
-1.49264e-05
-9.10562e-05
-1.14728e-05
-9.62714e-05
-7.83187e-06
-0.00010004
-4.02728e-06
-0.000101742
-9.93706e-05
-3.1357e-05
3.14735e-05
3.09284e-05
-3.16085e-05
2.39005e-05
-3.16935e-05
1.63314e-05
-3.16211e-05
8.75942e-06
-3.13987e-05
1.16838e-06
-3.10301e-05
-6.46701e-06
-3.05148e-05
-1.41782e-05
-2.98474e-05
-2.19991e-05
-2.90163e-05
-2.99614e-05
-2.80035e-05
-3.80874e-05
-2.67839e-05
-4.63807e-05
-2.53265e-05
-5.48126e-05
-2.3597e-05
-6.33059e-05
-2.15641e-05
-7.17189e-05
-1.92093e-05
-7.98348e-05
-1.65382e-05
-8.737e-05
-1.35877e-05
-9.40067e-05
-1.04189e-05
-9.94402e-05
-7.09003e-06
-0.000103369
-3.63023e-06
-0.000105202
-0.000103001
-2.8512e-05
3.18153e-05
2.81702e-05
-2.86931e-05
2.40816e-05
-2.87255e-05
1.63638e-05
-2.86197e-05
8.65364e-06
-2.83842e-05
9.32818e-07
-2.80238e-05
-6.82736e-06
-2.75393e-05
-1.46627e-05
-2.69262e-05
-2.26122e-05
-2.61741e-05
-3.07135e-05
-2.52658e-05
-3.89956e-05
-2.41774e-05
-4.74692e-05
-2.28779e-05
-5.6112e-05
-2.13323e-05
-6.48515e-05
-1.95071e-05
-7.35441e-05
-1.73802e-05
-8.19618e-05
-1.4954e-05
-8.97961e-05
-1.22651e-05
-9.66956e-05
-9.37868e-06
-0.000102327
-6.3595e-06
-0.000106388
-3.2401e-06
-0.000108321
-0.000106241
-2.57668e-05
3.20727e-05
2.55093e-05
-2.5879e-05
2.41939e-05
-2.58593e-05
1.63441e-05
-2.57196e-05
8.51387e-06
-2.54693e-05
6.82531e-07
-2.51145e-05
-7.18215e-06
-2.46567e-05
-1.51204e-05
-2.40924e-05
-2.31765e-05
-2.34121e-05
-3.13938e-05
-2.25998e-05
-3.98079e-05
-2.16325e-05
-4.84364e-05
-2.04804e-05
-5.72642e-05
-1.91084e-05
-6.62235e-05
-1.74817e-05
-7.51709e-05
-1.55755e-05
-8.3868e-05
-1.33893e-05
-9.19823e-05
-1.09585e-05
-9.91263e-05
-8.35164e-06
-0.000104933
-5.63962e-06
-0.0001091
-2.85666e-06
-0.000111104
-0.000109098
-2.3121e-05
3.22479e-05
2.29458e-05
-2.31656e-05
2.42385e-05
-2.3094e-05
1.62725e-05
-2.29196e-05
8.33944e-06
-2.2653e-05
4.15974e-07
-2.23013e-05
-7.53388e-06
-2.18667e-05
-1.5555e-05
-2.13461e-05
-2.36971e-05
-2.0731e-05
-3.2009e-05
-2.00063e-05
-4.05326e-05
-1.91506e-05
-4.92922e-05
-1.81352e-05
-5.82796e-05
-1.6926e-05
-6.74326e-05
-1.5488e-05
-7.66089e-05
-1.37944e-05
-8.55616e-05
-1.18423e-05
-9.39345e-05
-9.66564e-06
-0.000101303
-7.33552e-06
-0.000107264
-4.92844e-06
-0.000111507
-2.47924e-06
-0.000113553
-0.000111577
-2.05676e-05
3.23444e-05
2.0471e-05
-2.05467e-05
2.42176e-05
-2.04242e-05
1.615e-05
-2.0215e-05
8.13018e-06
-1.99311e-05
1.32048e-07
-1.95804e-05
-7.88455e-06
-1.91658e-05
-1.59697e-05
-1.86845e-05
-2.41783e-05
-1.81284e-05
-3.25651e-05
-1.74836e-05
-4.11774e-05
-1.67298e-05
-5.00459e-05
-1.58406e-05
-5.91688e-05
-1.47833e-05
-6.84899e-05
-1.35236e-05
-7.78687e-05
-1.2034e-05
-8.70511e-05
-1.03095e-05
-9.5659e-05
-8.38281e-06
-0.00010323
-6.32661e-06
-0.00010932
-4.2228e-06
-0.000113611
-2.10699e-06
-0.000115669
-0.000113684
-1.80901e-05
3.23726e-05
1.80619e-05
-1.80107e-05
2.41383e-05
-1.78407e-05
1.598e-05
-1.7598e-05
7.88744e-06
-1.72966e-05
-1.69376e-07
-1.69457e-05
-8.23545e-06
-1.65486e-05
-1.63667e-05
-1.61026e-05
-2.46243e-05
-1.55997e-05
-3.30679e-05
-1.5027e-05
-4.17502e-05
-1.4366e-05
-5.07069e-05
-1.35923e-05
-5.99425e-05
-1.26759e-05
-6.94063e-05
-1.15839e-05
-7.89607e-05
-1.02891e-05
-8.83459e-05
-8.78546e-06
-9.71626e-05
-7.10451e-06
-0.000104911
-5.31989e-06
-0.000111104
-3.51868e-06
-0.000115412
-1.7397e-06
-0.000117448
-0.000115424
-1.56703e-05
3.23373e-05
1.57056e-05
-1.55414e-05
2.40094e-05
-1.53318e-05
1.57704e-05
-1.50592e-05
7.61482e-06
-1.47414e-05
-4.87135e-07
-1.43898e-05
-8.58709e-06
-1.40082e-05
-1.67483e-05
-1.35937e-05
-2.50388e-05
-1.31383e-05
-3.35233e-05
-1.263e-05
-4.22585e-05
-1.20524e-05
-5.12845e-05
-1.13837e-05
-6.06111e-05
-1.0597e-05
-7.01931e-05
-9.66186e-06
-7.98958e-05
-8.55259e-06
-8.94551e-05
-7.26278e-06
-9.84524e-05
-5.82348e-06
-0.00010635
-4.30893e-06
-0.000112619
-2.81098e-06
-0.00011691
-1.37223e-06
-0.000118887
-0.000116796
-1.33128e-05
3.22327e-05
1.34174e-05
-1.31321e-05
2.38288e-05
-1.28872e-05
1.55254e-05
-1.25903e-05
7.31787e-06
-1.22582e-05
-8.19212e-07
-1.19055e-05
-8.93971e-06
-1.15374e-05
-1.71165e-05
-1.11502e-05
-2.54259e-05
-1.0736e-05
-3.39375e-05
-1.0284e-05
-4.27105e-05
-9.78005e-06
-5.17885e-05
-9.20567e-06
-6.11855e-05
-8.53737e-06
-7.08614e-05
-7.74829e-06
-8.06849e-05
-6.81499e-06
-9.03884e-05
-5.73212e-06
-9.95353e-05
-4.53095e-06
-0.000107551
-3.28583e-06
-0.000113864
-2.09309e-06
-0.000118103
-1.00214e-06
-0.000119978
-0.000117798
-1.10378e-05
3.20575e-05
1.1213e-05
-1.07981e-05
2.35891e-05
-1.05101e-05
1.52375e-05
-1.01874e-05
6.99516e-06
-9.84222e-06
-1.16443e-06
-9.48745e-06
-9.29448e-06
-9.1294e-06
-1.74746e-05
-8.76413e-06
-2.57912e-05
-8.38364e-06
-3.4318e-05
-7.97869e-06
-4.31154e-05
-7.53801e-06
-5.22292e-05
-7.04675e-06
-6.16768e-05
-6.48549e-06
-7.14226e-05
-5.83145e-06
-8.13389e-05
-5.06466e-06
-9.11552e-05
-4.18215e-06
-0.000100418
-3.21667e-06
-0.000108517
-2.24213e-06
-0.000114839
-1.35657e-06
-0.000118989
-6.13821e-07
-0.000120721
-0.000118412
-8.8534e-06
3.18163e-05
9.09458e-06
-8.5564e-06
2.32921e-05
-8.21924e-06
1.49003e-05
-7.85959e-06
6.63551e-06
-7.49395e-06
-1.53006e-06
-7.13246e-06
-9.65596e-06
-6.77835e-06
-1.78287e-05
-6.42693e-06
-2.61426e-05
-6.07044e-06
-3.46745e-05
-5.70182e-06
-4.34841e-05
-5.31304e-06
-5.2618e-05
-4.89319e-06
-6.20966e-05
-4.42727e-06
-7.18885e-05
-3.89719e-06
-8.1869e-05
-3.28748e-06
-9.17649e-05
-2.59905e-06
-0.000101106
-1.86761e-06
-0.000109248
-1.16734e-06
-0.000115539
-5.99868e-07
-0.000119556
-2.12787e-07
-0.000121108
-0.000118624
-6.75635e-06
3.15132e-05
7.05943e-06
-6.4058e-06
2.29415e-05
-6.02118e-06
1.45157e-05
-5.61864e-06
6.23296e-06
-5.21924e-06
-1.92946e-06
-4.83868e-06
-1.00365e-05
-4.47782e-06
-1.81895e-05
-4.12871e-06
-2.64917e-05
-3.78378e-06
-3.50194e-05
-3.4389e-06
-4.38289e-05
-3.08954e-06
-5.29673e-05
-2.72877e-06
-6.24574e-05
-2.34616e-06
-7.22711e-05
-1.92885e-06
-8.22863e-05
-1.46698e-06
-9.22268e-05
-9.66791e-07
-0.000101606
-4.67588e-07
-0.000109747
-4.44123e-08
-0.000115962
1.9353e-07
-0.000119794
2.23714e-07