/*--------------------------------*- C++ -*----------------------------------*\
| =========                 |                                                 |
| \\      /  F ield         | OpenFOAM: The Open Source CFD Toolbox           |
|  \\    /   O peration     | Version:  v2012                                 |
|   \\  /    A nd           | Website:  www.openfoam.com                      |
|    \\/     M anipulation  |                                                 |
\*---------------------------------------------------------------------------*/
FoamFile
{
    version     2.0;
    format      ascii;
    class       volVectorField;
    location    "622";
    object      U;
}
// * * * * * * * * * * * * * * * * * * * * * * * * * * * * * * * * * * * * * //

dimensions      [0 1 -1 0 0 0 0];


internalField   nonuniform List<vector> 
6057
(
(3.49304e-05 -0.994278 0)
(8.2775e-05 -0.994213 0)
(0.000123796 -0.994235 0)
(0.000152446 -0.994331 0)
(0.000179001 -0.994484 0)
(0.000201126 -0.994683 0)
(0.000219644 -0.994918 0)
(0.000235658 -0.995181 0)
(0.0002503 -0.995467 0)
(0.000264575 -0.995773 0)
(0.00027935 -0.996098 0)
(0.000295334 -0.996443 0)
(0.000312975 -0.996807 0)
(0.00033228 -0.997194 0)
(0.000352683 -0.997604 0)
(0.000372387 -0.998044 0)
(0.000386232 -0.998518 0)
(0.000381745 -0.999012 0)
(0.000310215 -0.99945 0)
(7.78578e-05 -0.999749 0)
(-0.000234346 -1.00096 0)
(-0.000120571 -1.00064 0)
(-2.42627e-05 -1.00042 0)
(5.38748e-05 -1.00026 0)
(0.00011475 -1.00015 0)
(0.000161394 -1.00008 0)
(0.000197183 -1.00004 0)
(0.000225234 -1.00001 0)
(0.000248275 -1 0)
(0.000268513 -1 0)
(0.000287728 -1.00001 0)
(0.000307321 -1.00003 0)
(0.000328223 -1.00005 0)
(0.000350771 -1.00007 0)
(0.000374721 -1.0001 0)
(0.000398245 -1.00013 0)
(0.000413855 -1.00015 0)
(0.000420135 -1.00016 0)
(0.000373411 -1.00014 0)
(0.000201435 -1.00003 0)
(-0.000547034 -1.00272 0)
(-0.000356502 -1.00235 0)
(-0.000201148 -1.00206 0)
(-7.90774e-05 -1.00184 0)
(1.39125e-05 -1.00167 0)
(8.31738e-05 -1.00152 0)
(0.000134645 -1.0014 0)
(0.000173234 -1.0013 0)
(0.000203151 -1.0012 0)
(0.000227615 -1.00111 0)
(0.000249078 -1.00102 0)
(0.00026938 -1.00092 0)
(0.000289821 -1.00083 0)
(0.000310952 -1.00074 0)
(0.000330417 -1.00064 0)
(0.000342138 -1.00053 0)
(0.000348529 -1.00041 0)
(0.000339175 -1.00028 0)
(0.000282381 -1.00014 0)
(0.000136964 -1.00003 0)
(-0.000903236 -1.00336 0)
(-0.000629741 -1.00297 0)
(-0.000413328 -1.00268 0)
(-0.000247057 -1.00245 0)
(-0.000125035 -1.00226 0)
(-3.60361e-05 -1.00209 0)
(2.86761e-05 -1.00195 0)
(7.49126e-05 -1.00181 0)
(0.000108954 -1.00167 0)
(0.000134992 -1.00154 0)
(0.000156074 -1.00141 0)
(0.000174343 -1.00127 0)
(0.000191145 -1.00112 0)
(0.000206941 -1.00097 0)
(0.000220599 -1.00081 0)
(0.000229351 -1.00064 0)
(0.000231143 -1.00047 0)
(0.00021578 -1.00028 0)
(0.00016703 -1.00012 0)
(7.0313e-05 -1.00002 0)
(-0.00126641 -1.00347 0)
(-0.000899587 -1.0031 0)
(-0.000622217 -1.00283 0)
(-0.000415031 -1.00262 0)
(-0.00026736 -1.00244 0)
(-0.000163271 -1.00228 0)
(-9.10543e-05 -1.00214 0)
(-4.13212e-05 -1.00199 0)
(-6.86759e-06 -1.00185 0)
(1.73265e-05 -1.0017 0)
(3.47644e-05 -1.00155 0)
(4.78945e-05 -1.00139 0)
(5.83044e-05 -1.00123 0)
(6.68412e-05 -1.00105 0)
(7.34856e-05 -1.00086 0)
(7.75003e-05 -1.00067 0)
(7.80837e-05 -1.00047 0)
(7.21384e-05 -1.00027 0)
(5.42801e-05 -1.00011 0)
(2.15033e-05 -1.00001 0)
(-0.00161715 -1.0032 0)
(-0.00113794 -1.00287 0)
(-0.00080128 -1.00266 0)
(-0.000557957 -1.00249 0)
(-0.000391945 -1.00235 0)
(-0.000279653 -1.00222 0)
(-0.000204858 -1.0021 0)
(-0.000155759 -1.00197 0)
(-0.000124044 -1.00183 0)
(-0.000104102 -1.00169 0)
(-9.2242e-05 -1.00154 0)
(-8.58901e-05 -1.00139 0)
(-8.33239e-05 -1.00122 0)
(-8.32704e-05 -1.00105 0)
(-8.42915e-05 -1.00086 0)
(-8.45686e-05 -1.00067 0)
(-8.25675e-05 -1.00047 0)
(-7.48202e-05 -1.00027 0)
(-5.56736e-05 -1.00011 0)
(-2.19594e-05 -1.00001 0)
(-0.0019473 -1.00253 0)
(-0.00131416 -1.00227 0)
(-0.000924913 -1.00216 0)
(-0.000654465 -1.00208 0)
(-0.000480911 -1.002 0)
(-0.000369016 -1.00192 0)
(-0.000298013 -1.00183 0)
(-0.00025382 -1.00173 0)
(-0.000227464 -1.00162 0)
(-0.000213381 -1.00151 0)
(-0.00020799 -1.00138 0)
(-0.000208677 -1.00125 0)
(-0.000213746 -1.00111 0)
(-0.000221772 -1.00096 0)
(-0.000230366 -1.00081 0)
(-0.000235739 -1.00064 0)
(-0.000235155 -1.00046 0)
(-0.000218152 -1.00028 0)
(-0.000168207 -1.00012 0)
(-7.06979e-05 -1.00002 0)
(-0.00223787 -1.0013 0)
(-0.0013717 -1.00113 0)
(-0.000952761 -1.0012 0)
(-0.000674865 -1.00123 0)
(-0.000511581 -1.00125 0)
(-0.000412029 -1.00125 0)
(-0.000352114 -1.00122 0)
(-0.000317066 -1.00117 0)
(-0.00029875 -1.00112 0)
(-0.000290669 -1.00105 0)
(-0.00029052 -1.00098 0)
(-0.000296664 -1.0009 0)
(-0.000307718 -1.00082 0)
(-0.000322589 -1.00073 0)
(-0.000338149 -1.00063 0)
(-0.000347347 -1.00053 0)
(-0.000351777 -1.00041 0)
(-0.00034104 -1.00028 0)
(-0.000283216 -1.00014 0)
(-0.000137215 -1.00003 0)
(-0.0024993 -0.998906 0)
(-0.00120398 -0.998801 0)
(-0.000838208 -0.999209 0)
(-0.000590388 -0.999437 0)
(-0.000461031 -0.999606 0)
(-0.000386719 -0.999719 0)
(-0.000344999 -0.999798 0)
(-0.000322738 -0.999856 0)
(-0.000312857 -0.9999 0)
(-0.000311019 -0.999936 0)
(-0.000315488 -0.999968 0)
(-0.000325496 -0.999998 0)
(-0.000340176 -1.00003 0)
(-0.000358636 -1.00006 0)
(-0.000379846 -1.00009 0)
(-0.000401524 -1.00012 0)
(-0.000416013 -1.00015 0)
(-0.000421765 -1.00016 0)
(-0.00037352 -1.00013 0)
(-0.000201494 -1.00003 0)
(-0.00211073 -0.992338 0)
(-0.000541367 -0.991535 0)
(-0.000535191 -0.992529 0)
(-0.000385636 -0.993251 0)
(-0.000334109 -0.993783 0)
(-0.000302518 -0.994226 0)
(-0.000286648 -0.994619 0)
(-0.000280066 -0.994985 0)
(-0.000279765 -0.99534 0)
(-0.000284063 -0.995691 0)
(-0.000292218 -0.996045 0)
(-0.000303832 -0.996408 0)
(-0.000318594 -0.996785 0)
(-0.000336047 -0.99718 0)
(-0.000355247 -0.997596 0)
(-0.000374051 -0.99804 0)
(-0.000387252 -0.998516 0)
(-0.000382246 -0.999011 0)
(-0.000310269 -0.99945 0)
(-7.78782e-05 -0.999749 0)
(0.0119215 -0.875856 0)
(0.0103639 -0.898856 0)
(0.00893462 -0.91878 0)
(0.00760494 -0.935805 0)
(0.00637827 -0.950153 0)
(0.00525786 -0.962051 0)
(0.00424615 -0.971729 0)
(0.00334437 -0.979421 0)
(0.00255259 -0.985358 0)
(0.00187012 -0.98977 0)
(0.00129576 -0.992885 0)
(0.000827251 -0.994926 0)
(0.000460403 -0.99611 0)
(0.000189333 -0.996637 0)
(7.29037e-06 -0.99669 0)
(-8.92027e-05 -0.996435 0)
(-0.000145523 -0.996013 0)
(-0.000147615 -0.995536 0)
(-0.000119977 -0.995088 0)
(-7.72772e-05 -0.994716 0)
(-2.43058e-05 -0.994443 0)
(0.0292862 -0.898456 0)
(0.0254517 -0.919885 0)
(0.0218712 -0.938348 0)
(0.0185452 -0.954022 0)
(0.0154842 -0.967118 0)
(0.0126952 -0.977856 0)
(0.0101831 -0.986461 0)
(0.00794912 -0.99316 0)
(0.00599201 -0.998182 0)
(0.0043091 -1.00175 0)
(0.00289698 -1.0041 0)
(0.00174985 -1.00544 0)
(0.000855136 -1.00599 0)
(0.0001904 -1.00596 0)
(-0.000267877 -1.00552 0)
(-0.000542888 -1.00484 0)
(-0.000665285 -1.00405 0)
(-0.000671165 -1.00325 0)
(-0.000598519 -1.00251 0)
(-0.000485215 -1.00188 0)
(-0.000359064 -1.00136 0)
(0.0476017 -0.906463 0)
(0.0413102 -0.927287 0)
(0.0354082 -0.945208 0)
(0.0299232 -0.9604 0)
(0.0248763 -0.973061 0)
(0.0202817 -0.983401 0)
(0.0161478 -0.991636 0)
(0.0124772 -0.997988 0)
(0.00926827 -1.00268 0)
(0.0065167 -1.00594 0)
(0.00421606 -1.00797 0)
(0.00235651 -1.00901 0)
(0.000917807 -1.00928 0)
(-0.00013172 -1.00897 0)
(-0.000833652 -1.00828 0)
(-0.00123416 -1.00736 0)
(-0.00138813 -1.00636 0)
(-0.00135442 -1.00539 0)
(-0.00119794 -1.00453 0)
(-0.00098471 -1.00379 0)
(-0.000761296 -1.0032 0)
(0.0655465 -0.911352 0)
(0.0568579 -0.931934 0)
(0.0486912 -0.949633 0)
(0.0410912 -0.964616 0)
(0.03409 -0.977074 0)
(0.0277093 -0.98721 0)
(0.0219635 -0.995236 0)
(0.0168592 -1.00137 0)
(0.0123961 -1.00584 0)
(0.00856921 -1.00884 0)
(0.00536973 -1.01062 0)
(0.00278925 -1.01138 0)
(0.000804125 -1.01136 0)
(-0.000630531 -1.01077 0)
(-0.00157472 -1.0098 0)
(-0.00209057 -1.00864 0)
(-0.00225472 -1.00743 0)
(-0.0021556 -1.00629 0)
(-0.00188568 -1.0053 0)
(-0.0015468 -1.0045 0)
(-0.00121324 -1.00387 0)
(0.0833529 -0.915003 0)
(0.0722764 -0.935457 0)
(0.0618478 -0.953032 0)
(0.0521295 -0.967893 0)
(0.0431657 -0.980229 0)
(0.0349873 -0.990236 0)
(0.0276182 -0.998123 0)
(0.0210727 -1.0041 0)
(0.0153455 -1.00839 0)
(0.0104216 -1.0112 0)
(0.00629297 -1.01275 0)
(0.00297179 -1.01325 0)
(0.000429062 -1.01293 0)
(-0.00138263 -1.01204 0)
(-0.00255172 -1.01078 0)
(-0.0031582 -1.00935 0)
(-0.00329668 -1.00789 0)
(-0.00308943 -1.00657 0)
(-0.00265476 -1.00546 0)
(-0.0021431 -1.00462 0)
(-0.00167952 -1.00397 0)
(0.10107 -0.916963 0)
(0.0876052 -0.937262 0)
(0.0749158 -0.954704 0)
(0.0630819 -0.969462 0)
(0.052159 -0.981725 0)
(0.0421875 -0.991681 0)
(0.0332 -0.999522 0)
(0.025207 -1.00546 0)
(0.018175 -1.0097 0)
(0.0121007 -1.01248 0)
(0.00701723 -1.01392 0)
(0.00292722 -1.01433 0)
(-0.000195412 -1.01379 0)
(-0.00239558 -1.01267 0)
(-0.0037857 -1.01117 0)
(-0.00445123 -1.0095 0)
(-0.00452108 -1.00782 0)
(-0.00415064 -1.00631 0)
(-0.00348171 -1.00511 0)
(-0.00273367 -1.00427 0)
(-0.00212874 -1.00367 0)
(0.118593 -0.915389 0)
(0.102763 -0.935264 0)
(0.0878512 -0.952359 0)
(0.0739483 -0.966878 0)
(0.0611124 -0.979028 0)
(0.0493756 -0.988998 0)
(0.0387481 -0.996982 0)
(0.0292276 -1.00317 0)
(0.0208884 -1.00759 0)
(0.0137875 -1.01055 0)
(0.00780378 -1.01236 0)
(0.0028866 -1.01302 0)
(-0.000856861 -1.01275 0)
(-0.00344683 -1.01179 0)
(-0.00508379 -1.01018 0)
(-0.00585264 -1.00855 0)
(-0.00582039 -1.00685 0)
(-0.00524413 -1.00528 0)
(-0.00430374 -1.00407 0)
(-0.00327652 -1.00337 0)
(-0.0025215 -1.00294 0)
(0.135541 -0.906496 0)
(0.117415 -0.92508 0)
(0.100389 -0.941041 0)
(0.0845574 -0.954661 0)
(0.0699666 -0.966215 0)
(0.0566254 -0.975943 0)
(0.044527 -0.984054 0)
(0.0337279 -0.990671 0)
(0.0242991 -0.995971 0)
(0.0161676 -1.00003 0)
(0.00920456 -1.00293 0)
(0.00344149 -1.00472 0)
(-0.00102778 -1.00553 0)
(-0.00416292 -1.00554 0)
(-0.00603197 -1.00509 0)
(-0.00688345 -1.0044 0)
(-0.00687441 -1.00347 0)
(-0.006226 -1.00246 0)
(-0.00517869 -1.00169 0)
(-0.00383646 -1.00147 0)
(-0.00269831 -1.00152 0)
(0.150863 -0.883478 0)
(0.130553 -0.898564 0)
(0.111623 -0.911172 0)
(0.0941642 -0.921746 0)
(0.0781942 -0.930718 0)
(0.0636779 -0.938482 0)
(0.0505534 -0.945376 0)
(0.0387738 -0.951666 0)
(0.0282923 -0.957539 0)
(0.0190373 -0.963105 0)
(0.0111092 -0.968257 0)
(0.0045525 -0.973004 0)
(-0.000725848 -0.977232 0)
(-0.00464912 -0.981024 0)
(-0.00700183 -0.984552 0)
(-0.00843545 -0.987739 0)
(-0.00896522 -0.990441 0)
(-0.00851165 -0.992623 0)
(-0.00686608 -0.994213 0)
(-0.00372309 -0.99569 0)
(-0.00145362 -0.997734 0)
(0.162067 -0.836726 0)
(0.139536 -0.844083 0)
(0.118824 -0.848751 0)
(0.100024 -0.851315 0)
(0.0831404 -0.852335 0)
(0.0681228 -0.852332 0)
(0.0548953 -0.851792 0)
(0.0433924 -0.851187 0)
(0.0335411 -0.851061 0)
(0.0251963 -0.85204 0)
(0.0181061 -0.854604 0)
(0.0121551 -0.859016 0)
(0.00743242 -0.865644 0)
(0.00472068 -0.874449 0)
(0.00411613 -0.885556 0)
(0.00448014 -0.89866 0)
(0.00554406 -0.913477 0)
(0.00671672 -0.92932 0)
(0.00780428 -0.943537 0)
(0.00842091 -0.957857 0)
(0.00631948 -0.976546 0)
(-0.0263983 0.0127997 0)
(-0.0212098 0.0456134 0)
(-0.0054403 0.0451944 0)
(0.00818962 0.0256725 0)
(0.0204233 -0.0144098 0)
(0.0339051 -0.0823 0)
(0.041156 -0.176101 0)
(0.040354 -0.265109 0)
(0.0367126 -0.344897 0)
(0.0334431 -0.418512 0)
(0.0305797 -0.485953 0)
(0.0279704 -0.547744 0)
(0.0255659 -0.60431 0)
(0.0233172 -0.655989 0)
(0.0211911 -0.703048 0)
(0.0191658 -0.745709 0)
(0.0172301 -0.784165 0)
(0.0153799 -0.818575 0)
(0.0136091 -0.849074 0)
(-0.0460948 0.00150867 0)
(-0.0102786 0.0227519 0)
(0.0206837 0.00512395 0)
(0.0457576 -0.0446115 0)
(0.0732054 -0.119334 0)
(0.0942245 -0.204067 0)
(0.0999876 -0.284393 0)
(0.0949201 -0.351338 0)
(0.0875521 -0.418191 0)
(0.0805777 -0.481522 0)
(0.07406 -0.540846 0)
(0.068011 -0.596109 0)
(0.0623451 -0.64733 0)
(0.0569821 -0.694572 0)
(0.0518614 -0.737903 0)
(0.046947 -0.777396 0)
(0.0422266 -0.813125 0)
(0.0377041 -0.845171 0)
(0.0333815 -0.873635 0)
(-0.0526246 -0.0152382 0)
(0.0134171 -0.0122362 0)
(0.0584676 -0.0558719 0)
(0.099524 -0.122746 0)
(0.133695 -0.19885 0)
(0.151585 -0.270017 0)
(0.152539 -0.332948 0)
(0.145373 -0.392218 0)
(0.136488 -0.45168 0)
(0.127161 -0.508811 0)
(0.117968 -0.563458 0)
(0.1091 -0.615168 0)
(0.100548 -0.663694 0)
(0.0922657 -0.708866 0)
(0.084214 -0.750582 0)
(0.076376 -0.788786 0)
(0.0687602 -0.823458 0)
(0.0613939 -0.854614 0)
(0.0543088 -0.882315 0)
(-0.0284 -0.0299064 0)
(0.0461915 -0.0503667 0)
(0.105923 -0.109335 0)
(0.156098 -0.179188 0)
(0.188665 -0.24663 0)
(0.200919 -0.305971 0)
(0.198898 -0.36109 0)
(0.191097 -0.416207 0)
(0.181297 -0.471088 0)
(0.170439 -0.52462 0)
(0.159309 -0.576432 0)
(0.148194 -0.625974 0)
(0.137188 -0.672874 0)
(0.126312 -0.716839 0)
(0.115575 -0.757659 0)
(0.105003 -0.795192 0)
(0.0946399 -0.829352 0)
(0.0845485 -0.860105 0)
(0.0747968 -0.887479 0)
(0.00524026 -0.0421093 0)
(0.0892317 -0.0806044 0)
(0.157444 -0.146478 0)
(0.208234 -0.213628 0)
(0.235702 -0.27328 0)
(0.243905 -0.326768 0)
(0.241079 -0.378828 0)
(0.233322 -0.431314 0)
(0.222998 -0.483493 0)
(0.211185 -0.534838 0)
(0.198666 -0.584853 0)
(0.185788 -0.633009 0)
(0.172723 -0.67888 0)
(0.159561 -0.722108 0)
(0.146369 -0.762414 0)
(0.133226 -0.799587 0)
(0.12023 -0.83349 0)
(0.107489 -0.86405 0)
(0.0951206 -0.891268 0)
(0.051122 -0.0487886 0)
(0.14017 -0.10056 0)
(0.209634 -0.169035 0)
(0.256077 -0.232271 0)
(0.278473 -0.287412 0)
(0.284497 -0.338757 0)
(0.281607 -0.389589 0)
(0.273906 -0.440548 0)
(0.263224 -0.491196 0)
(0.250693 -0.541198 0)
(0.237042 -0.590081 0)
(0.222653 -0.637359 0)
(0.207747 -0.682584 0)
(0.192467 -0.725357 0)
(0.176938 -0.765339 0)
(0.161299 -0.802272 0)
(0.145708 -0.835977 0)
(0.130335 -0.866355 0)
(0.115355 -0.893397 0)
(0.105202 -0.0526661 0)
(0.195632 -0.111503 0)
(0.260956 -0.180565 0)
(0.301509 -0.240714 0)
(0.319863 -0.293991 0)
(0.324571 -0.344867 0)
(0.321531 -0.395215 0)
(0.313695 -0.44537 0)
(0.302659 -0.495158 0)
(0.289482 -0.544337 0)
(0.274822 -0.592501 0)
(0.259058 -0.639193 0)
(0.242429 -0.683952 0)
(0.225117 -0.726335 0)
(0.2073 -0.765957 0)
(0.189181 -0.802516 0)
(0.170993 -0.835807 0)
(0.15298 -0.865731 0)
(0.135386 -0.892293 0)
(0.167642 -0.0557885 0)
(0.252198 -0.116364 0)
(0.311091 -0.184622 0)
(0.34582 -0.242849 0)
(0.360984 -0.295682 0)
(0.364581 -0.346667 0)
(0.361157 -0.396834 0)
(0.353023 -0.446564 0)
(0.341588 -0.495835 0)
(0.327779 -0.54446 0)
(0.312163 -0.592082 0)
(0.295078 -0.638249 0)
(0.276758 -0.682461 0)
(0.257408 -0.724223 0)
(0.237261 -0.763093 0)
(0.2166 -0.798728 0)
(0.195747 -0.830914 0)
(0.175044 -0.859575 0)
(0.154818 -0.884773 0)
(0.233631 -0.0570933 0)
(0.308057 -0.116841 0)
(0.360134 -0.183893 0)
(0.38965 -0.241064 0)
(0.402161 -0.293937 0)
(0.404616 -0.345099 0)
(0.40061 -0.395153 0)
(0.392051 -0.444581 0)
(0.380149 -0.493432 0)
(0.36567 -0.541542 0)
(0.349065 -0.58855 0)
(0.330602 -0.63396 0)
(0.310484 -0.677194 0)
(0.288938 -0.717658 0)
(0.266261 -0.754823 0)
(0.242836 -0.78829 0)
(0.219112 -0.817839 0)
(0.195558 -0.843445 0)
(0.172614 -0.86527 0)
(0.296883 -0.0560328 0)
(0.362817 -0.114211 0)
(0.40832 -0.180184 0)
(0.433226 -0.236739 0)
(0.443435 -0.289617 0)
(0.444659 -0.340782 0)
(0.439907 -0.390627 0)
(0.430801 -0.43968 0)
(0.418324 -0.487999 0)
(0.403056 -0.535395 0)
(0.385302 -0.581432 0)
(0.365227 -0.625494 0)
(0.342987 -0.666842 0)
(0.318825 -0.704711 0)
(0.293124 -0.738423 0)
(0.266411 -0.767494 0)
(0.23931 -0.791698 0)
(0.212468 -0.811084 0)
(0.186479 -0.825954 0)
(0.165247 -0.757312 0)
(0.140013 -0.752154 0)
(0.117139 -0.743799 0)
(0.0966621 -0.732778 0)
(0.0785184 -0.719483 0)
(0.0625822 -0.704155 0)
(0.0487076 -0.686874 0)
(0.0367658 -0.667585 0)
(0.0267273 -0.646174 0)
(0.0189593 -0.622355 0)
(0.0126717 -0.595736 0)
(0.0077365 -0.566193 0)
(0.0040799 -0.533451 0)
(0.00147691 -0.497347 0)
(-0.000576434 -0.457684 0)
(-0.00307838 -0.413947 0)
(-0.00606634 -0.364933 0)
(-0.0070311 -0.308688 0)
(-0.00967971 -0.248797 0)
(-0.0232562 -0.192465 0)
(-0.036112 -0.14879 0)
(0.156572 -0.649319 0)
(0.128199 -0.631396 0)
(0.102665 -0.610866 0)
(0.0798231 -0.588329 0)
(0.0594413 -0.564185 0)
(0.041278 -0.538667 0)
(0.0251186 -0.51187 0)
(0.0107634 -0.483818 0)
(-0.00194924 -0.454607 0)
(-0.0131924 -0.424295 0)
(-0.0232777 -0.392584 0)
(-0.0323124 -0.358837 0)
(-0.039867 -0.323356 0)
(-0.0458501 -0.285598 0)
(-0.0508883 -0.2453 0)
(-0.0560204 -0.200045 0)
(-0.0608475 -0.151437 0)
(-0.0633709 -0.0987126 0)
(-0.0650899 -0.0465745 0)
(-0.0761563 -0.00350427 0)
(-0.104527 0.00890693 0)
(0.137838 -0.534169 0)
(0.107408 -0.509682 0)
(0.0805274 -0.484914 0)
(0.0569255 -0.46057 0)
(0.0362806 -0.437107 0)
(0.018247 -0.414773 0)
(0.0024353 -0.393593 0)
(-0.0115999 -0.373223 0)
(-0.0241657 -0.353132 0)
(-0.035444 -0.332686 0)
(-0.0459952 -0.310066 0)
(-0.0559339 -0.285767 0)
(-0.0651285 -0.25946 0)
(-0.0740516 -0.230373 0)
(-0.0830291 -0.198842 0)
(-0.0912731 -0.165514 0)
(-0.0974998 -0.130746 0)
(-0.10085 -0.0936136 0)
(-0.102736 -0.054911 0)
(-0.104136 -0.0213337 0)
(-0.0968809 -0.00422039 0)
(0.116027 -0.433835 0)
(0.0863758 -0.412363 0)
(0.0611291 -0.39383 0)
(0.0396172 -0.378419 0)
(0.021045 -0.365708 0)
(0.00460331 -0.354783 0)
(-0.0104091 -0.344438 0)
(-0.0245238 -0.333368 0)
(-0.0380442 -0.320906 0)
(-0.0511254 -0.306514 0)
(-0.063588 -0.289887 0)
(-0.0753253 -0.270805 0)
(-0.0864069 -0.248974 0)
(-0.0969256 -0.224326 0)
(-0.107033 -0.197117 0)
(-0.116663 -0.167627 0)
(-0.124795 -0.13598 0)
(-0.130526 -0.102265 0)
(-0.133247 -0.067543 0)
(-0.130109 -0.0356865 0)
(-0.109486 -0.012032 0)
(0.0995212 -0.362697 0)
(0.0734668 -0.351241 0)
(0.0516245 -0.343752 0)
(0.0326172 -0.338826 0)
(0.0152969 -0.334835 0)
(-0.00109966 -0.330408 0)
(-0.0169805 -0.324605 0)
(-0.0324829 -0.317 0)
(-0.0476854 -0.307266 0)
(-0.0626378 -0.295191 0)
(-0.0772756 -0.280615 0)
(-0.0914833 -0.263378 0)
(-0.105172 -0.243375 0)
(-0.118269 -0.220633 0)
(-0.130701 -0.195229 0)
(-0.142203 -0.167568 0)
(-0.151812 -0.138075 0)
(-0.158663 -0.106912 0)
(-0.161629 -0.07458 0)
(-0.156597 -0.0430886 0)
(-0.131364 -0.0160747 0)
(0.0923354 -0.320281 0)
(0.0698366 -0.318312 0)
(0.0499551 -0.318248 0)
(0.0313716 -0.318354 0)
(0.0133751 -0.317487 0)
(-0.00433843 -0.315031 0)
(-0.0218752 -0.310666 0)
(-0.0392598 -0.304221 0)
(-0.0565053 -0.295519 0)
(-0.0735823 -0.28445 0)
(-0.0904095 -0.270915 0)
(-0.106885 -0.254816 0)
(-0.122893 -0.236111 0)
(-0.138271 -0.214851 0)
(-0.152741 -0.191098 0)
(-0.165825 -0.16519 0)
(-0.176856 -0.137575 0)
(-0.184939 -0.10837 0)
(-0.18864 -0.0777315 0)
(-0.183397 -0.0466918 0)
(-0.157268 -0.0180241 0)
(0.0923894 -0.295556 0)
(0.0713272 -0.2985 0)
(0.0513671 -0.301209 0)
(0.0318174 -0.302756 0)
(0.0124199 -0.3027 0)
(-0.00691172 -0.300824 0)
(-0.0262064 -0.296995 0)
(-0.0454648 -0.291092 0)
(-0.0646764 -0.283005 0)
(-0.0837893 -0.272653 0)
(-0.102711 -0.259962 0)
(-0.121319 -0.244864 0)
(-0.139461 -0.227341 0)
(-0.156909 -0.20748 0)
(-0.173281 -0.185294 0)
(-0.188008 -0.160973 0)
(-0.200509 -0.134977 0)
(-0.209903 -0.107397 0)
(-0.214566 -0.0781711 0)
(-0.210147 -0.0478204 0)
(-0.184906 -0.0187146 0)
(0.0958428 -0.278152 0)
(0.0745178 -0.282666 0)
(0.0535332 -0.285994 0)
(0.0326308 -0.287798 0)
(0.0117248 -0.287913 0)
(-0.00921958 -0.286235 0)
(-0.0302168 -0.282683 0)
(-0.0512591 -0.277168 0)
(-0.0723226 -0.269605 0)
(-0.0933472 -0.259922 0)
(-0.114231 -0.248049 0)
(-0.134829 -0.233926 0)
(-0.154954 -0.217539 0)
(-0.174335 -0.198961 0)
(-0.192556 -0.178216 0)
(-0.20892 -0.155379 0)
(-0.222872 -0.130824 0)
(-0.233628 -0.104684 0)
(-0.239472 -0.0767886 0)
(-0.236383 -0.0473703 0)
(-0.212876 -0.0186368 0)
(0.10031 -0.262887 0)
(0.0780059 -0.267585 0)
(0.0557555 -0.27086 0)
(0.0334656 -0.272589 0)
(0.0110947 -0.272687 0)
(-0.011381 -0.271091 0)
(-0.0339736 -0.267749 0)
(-0.0566755 -0.26259 0)
(-0.0794607 -0.255539 0)
(-0.102267 -0.246522 0)
(-0.124987 -0.235466 0)
(-0.147454 -0.222306 0)
(-0.169444 -0.207011 0)
(-0.190649 -0.189629 0)
(-0.21062 -0.170218 0)
(-0.228632 -0.148791 0)
(-0.244066 -0.125569 0)
(-0.256196 -0.100755 0)
(-0.263331 -0.0741937 0)
(-0.26177 -0.0459247 0)
(-0.240338 -0.0180903 0)
(0.104825 -0.248024 0)
(0.0813535 -0.252469 0)
(0.0578299 -0.255495 0)
(0.0342098 -0.257044 0)
(0.0104629 -0.257063 0)
(-0.0134333 -0.255516 0)
(-0.0374949 -0.252367 0)
(-0.0617215 -0.247559 0)
(-0.0860927 -0.241018 0)
(-0.110551 -0.232669 0)
(-0.134984 -0.222429 0)
(-0.159211 -0.210221 0)
(-0.182972 -0.195995 0)
(-0.205912 -0.179757 0)
(-0.227543 -0.161575 0)
(-0.24719 -0.141472 0)
(-0.264141 -0.119549 0)
(-0.277632 -0.0960253 0)
(-0.286085 -0.0708161 0)
(-0.286068 -0.0438656 0)
(-0.266779 -0.017261 0)
(0.109068 -0.233161 0)
(0.0844254 -0.237225 0)
(0.0596877 -0.239938 0)
(0.0348245 -0.241269 0)
(0.00980849 -0.241189 0)
(-0.0153865 -0.23968 0)
(-0.0407855 -0.23672 0)
(-0.0664 -0.232257 0)
(-0.0922211 -0.22622 0)
(-0.1182 -0.218531 0)
(-0.144226 -0.209099 0)
(-0.17011 -0.197832 0)
(-0.195561 -0.18466 0)
(-0.220178 -0.169552 0)
(-0.243428 -0.152534 0)
(-0.264652 -0.133657 0)
(-0.283101 -0.113011 0)
(-0.297931 -0.0907834 0)
(-0.307675 -0.0669533 0)
(-0.309119 -0.0414421 0)
(-0.291887 -0.0162659 0)
(0.112938 -0.218287 0)
(0.0871778 -0.22193 0)
(0.0613059 -0.224307 0)
(0.0352976 -0.225409 0)
(0.00912505 -0.225225 0)
(-0.0172453 -0.223751 0)
(-0.043851 -0.220972 0)
(-0.070719 -0.216842 0)
(-0.0978559 -0.211295 0)
(-0.125226 -0.204248 0)
(-0.152726 -0.195605 0)
(-0.180161 -0.18526 0)
(-0.207222 -0.173119 0)
(-0.233467 -0.159122 0)
(-0.258316 -0.143258 0)
(-0.28107 -0.125569 0)
(-0.300959 -0.106167 0)
(-0.317082 -0.0852394 0)
(-0.328053 -0.0628098 0)
(-0.330828 -0.0388164 0)
(-0.315487 -0.0151791 0)
(0.116406 -0.203482 0)
(0.0895989 -0.206693 0)
(0.0626796 -0.208733 0)
(0.0356271 -0.209607 0)
(0.00840992 -0.209319 0)
(-0.0190155 -0.207874 0)
(-0.0467014 -0.205265 0)
(-0.0746928 -0.201452 0)
(-0.103015 -0.196372 0)
(-0.131648 -0.189943 0)
(-0.160503 -0.182061 0)
(-0.189386 -0.172609 0)
(-0.217973 -0.161474 0)
(-0.245787 -0.148566 0)
(-0.2722 -0.133845 0)
(-0.296455 -0.11734 0)
(-0.317725 -0.099169 0)
(-0.33508 -0.0795379 0)
(-0.347186 -0.058522 0)
(-0.351142 -0.0360933 0)
(-0.337484 -0.0140468 0)
(0.119469 -0.188843 0)
(0.0916903 -0.191629 0)
(0.0638121 -0.193337 0)
(0.0358146 -0.193989 0)
(0.00766078 -0.193596 0)
(-0.0207047 -0.192174 0)
(-0.0493502 -0.189723 0)
(-0.0783401 -0.186206 0)
(-0.10772 -0.181566 0)
(-0.137493 -0.175722 0)
(-0.167584 -0.168567 0)
(-0.197809 -0.159975 0)
(-0.227835 -0.149815 0)
(-0.257157 -0.137972 0)
(-0.285089 -0.124381 0)
(-0.310805 -0.109054 0)
(-0.333404 -0.0921111 0)
(-0.351919 -0.0737754 0)
(-0.365058 -0.0541784 0)
(-0.370038 -0.0333389 0)
(-0.357837 -0.012897 0)
(0.122135 -0.174464 0)
(0.0934604 -0.176835 0)
(0.06471 -0.178223 0)
(0.0358628 -0.178658 0)
(0.00687477 -0.178162 0)
(-0.0223223 -0.176756 0)
(-0.0518136 -0.174446 0)
(-0.0816835 -0.171202 0)
(-0.112001 -0.166971 0)
(-0.14279 -0.161675 0)
(-0.174 -0.155208 0)
(-0.20546 -0.147436 0)
(-0.236835 -0.138216 0)
(-0.267593 -0.127412 0)
(-0.296992 -0.114934 0)
(-0.324125 -0.100776 0)
(-0.348 -0.0850567 0)
(-0.367598 -0.0680149 0)
(-0.381659 -0.0498346 0)
(-0.387512 -0.0305941 0)
(-0.37654 -0.0117461 0)
(0.124415 -0.160421 0)
(0.0949205 -0.162393 0)
(0.0653812 -0.163472 0)
(0.0357745 -0.163697 0)
(0.00604832 -0.163096 0)
(-0.0238788 -0.161697 0)
(-0.0541088 -0.159512 0)
(-0.0847472 -0.156516 0)
(-0.115886 -0.152662 0)
(-0.147575 -0.147876 0)
(-0.179788 -0.142053 0)
(-0.212373 -0.135058 0)
(-0.245 -0.126736 0)
(-0.277115 -0.116938 0)
(-0.307923 -0.105551 0)
(-0.336422 -0.0925508 0)
(-0.361517 -0.0780474 0)
(-0.382118 -0.0622957 0)
(-0.396991 -0.0455233 0)
(-0.403571 -0.0278823 0)
(-0.393604 -0.0106026 0)
(0.126325 -0.146776 0)
(0.0960822 -0.148364 0)
(0.0658328 -0.149144 0)
(0.0355513 -0.149164 0)
(0.00517694 -0.148456 0)
(-0.0253851 -0.147055 0)
(-0.056254 -0.144978 0)
(-0.087556 -0.142205 0)
(-0.119407 -0.138694 0)
(-0.151884 -0.134378 0)
(-0.184987 -0.129155 0)
(-0.218586 -0.122889 0)
(-0.252364 -0.115423 0)
(-0.285751 -0.106592 0)
(-0.317897 -0.0962676 0)
(-0.347706 -0.084406 0)
(-0.373961 -0.071108 0)
(-0.395485 -0.0566392 0)
(-0.411059 -0.0412616 0)
(-0.41823 -0.0252153 0)
(-0.409053 -0.00946952 0)
(0.127879 -0.133573 0)
(0.0969555 -0.134789 0)
(0.0660702 -0.135279 0)
(0.0351934 -0.135094 0)
(0.0042552 -0.134276 0)
(-0.0268528 -0.132863 0)
(-0.0582669 -0.130877 0)
(-0.0901343 -0.128303 0)
(-0.122595 -0.125105 0)
(-0.155752 -0.12122 0)
(-0.189635 -0.116551 0)
(-0.224141 -0.110966 0)
(-0.258965 -0.104305 0)
(-0.293531 -0.0963997 0)
(-0.326939 -0.0871041 0)
(-0.357992 -0.0763577 0)
(-0.385343 -0.0642497 0)
(-0.407707 -0.0510538 0)
(-0.423871 -0.0370548 0)
(-0.431507 -0.0225973 0)
(-0.422915 -0.00834637 0)
(0.129088 -0.120835 0)
(0.0975476 -0.121689 0)
(0.0660964 -0.121892 0)
(0.0346992 -0.121504 0)
(0.00327686 -0.12057 0)
(-0.028293 -0.119135 0)
(-0.0601644 -0.117225 0)
(-0.0925053 -0.114827 0)
(-0.125479 -0.111912 0)
(-0.159217 -0.108421 0)
(-0.193775 -0.104261 0)
(-0.229079 -0.0993077 0)
(-0.264844 -0.0934034 0)
(-0.30049 -0.0863754 0)
(-0.335073 -0.0780697 0)
(-0.367299 -0.0684101 0)
(-0.395676 -0.0574728 0)
(-0.418795 -0.0455375 0)
(-0.435439 -0.0328996 0)
(-0.443419 -0.0200263 0)
(-0.435217 -0.00723036 0)
(0.129958 -0.108561 0)
(0.0978629 -0.109061 0)
(0.065912 -0.108981 0)
(0.0340659 -0.108388 0)
(0.00223535 -0.107333 0)
(-0.0297166 -0.105867 0)
(-0.0619621 -0.104018 0)
(-0.0946901 -0.101777 0)
(-0.128088 -0.0991175 0)
(-0.162311 -0.0959845 0)
(-0.197445 -0.0922919 0)
(-0.233444 -0.0879211 0)
(-0.270044 -0.0827212 0)
(-0.306667 -0.0765214 0)
(-0.342332 -0.0691628 0)
(-0.375647 -0.0605571 0)
(-0.404973 -0.0507679 0)
(-0.428759 -0.0400801 0)
(-0.445772 -0.0287861 0)
(-0.453981 -0.0174955 0)
(-0.445983 -0.00611806 0)
(0.130502 -0.0967153 0)
(0.0979063 -0.0968743 0)
(0.0655176 -0.0965189 0)
(0.0332906 -0.0957224 0)
(0.00112488 -0.094544 0)
(-0.0311327 -0.0930389 0)
(-0.0636734 -0.0912389 0)
(-0.096708 -0.0891375 0)
(-0.130446 -0.0867088 0)
(-0.165068 -0.0839011 0)
(-0.200685 -0.0806344 0)
(-0.237278 -0.0767984 0)
(-0.274608 -0.0722511 0)
(-0.312103 -0.0668283 0)
(-0.34875 -0.060371 0)
(-0.383063 -0.0527833 0)
(-0.413253 -0.0441171 0)
(-0.437612 -0.0346637 0)
(-0.454879 -0.024698 0)
(-0.463199 -0.0149915 0)
(-0.455232 -0.00501193 0)
(0.130758 -0.085208 0)
(0.0977017 -0.0850669 0)
(0.0649226 -0.0844582 0)
(0.0323747 -0.0834678 0)
(-5.77352e-05 -0.0821679 0)
(-0.0325481 -0.0806207 0)
(-0.0653097 -0.0788614 0)
(-0.0985759 -0.0768843 0)
(-0.132578 -0.0746634 0)
(-0.167518 -0.0721493 0)
(-0.203531 -0.0692683 0)
(-0.240625 -0.0659196 0)
(-0.278582 -0.0619732 0)
(-0.31684 -0.0572751 0)
(-0.354361 -0.0516713 0)
(-0.389574 -0.0450634 0)
(-0.420533 -0.0374938 0)
(-0.445365 -0.0292634 0)
(-0.462762 -0.0206123 0)
(-0.471065 -0.0124951 0)
(-0.462997 -0.00393745 0)
(0.130723 -0.0739453 0)
(0.0972846 -0.0735447 0)
(0.0641601 -0.0727403 0)
(0.0313321 -0.0715777 0)
(-0.00131003 -0.0701647 0)
(-0.0339667 -0.0685763 0)
(-0.0668798 -0.066852 0)
(-0.100309 -0.0649859 0)
(-0.134506 -0.0629503 0)
(-0.169692 -0.0606979 0)
(-0.206023 -0.058162 0)
(-0.243526 -0.0552532 0)
(-0.282009 -0.0518558 0)
(-0.320922 -0.0478295 0)
(-0.359206 -0.0430303 0)
(-0.395207 -0.0373628 0)
(-0.426829 -0.0308632 0)
(-0.452026 -0.0238458 0)
(-0.469423 -0.0164997 0)
(-0.47756 -0.009989 0)
(-0.469288 -0.00286749 0)
(0.130438 -0.0629894 0)
(0.096637 -0.0623009 0)
(0.0632392 -0.0612917 0)
(0.030192 -0.0600159 0)
(-0.00261992 -0.0585011 0)
(-0.0353879 -0.0568724 0)
(-0.0683911 -0.0551769 0)
(-0.101923 -0.0534075 0)
(-0.136255 -0.0515329 0)
(-0.171622 -0.0495077 0)
(-0.208196 -0.0472743 0)
(-0.246024 -0.0447567 0)
(-0.284935 -0.0418556 0)
(-0.324392 -0.0384479 0)
(-0.36332 -0.0344039 0)
(-0.399991 -0.029637 0)
(-0.432158 -0.0241814 0)
(-0.457598 -0.0183698 0)
(-0.47486 -0.0123277 0)
(-0.482686 -0.00745561 0)
(-0.474099 -0.00177709 0)
(0.129885 -0.052443 0)
(0.0957983 -0.0514438 0)
(0.0621485 -0.0501727 0)
(0.0289351 -0.0487377 0)
(-0.00397273 -0.0471628 0)
(-0.0368088 -0.0454886 0)
(-0.0698522 -0.0438077 0)
(-0.103435 -0.0421142 0)
(-0.137851 -0.0403699 0)
(-0.173343 -0.0385322 0)
(-0.210092 -0.0365547 0)
(-0.248164 -0.0343771 0)
(-0.287406 -0.0319185 0)
(-0.327294 -0.0290756 0)
(-0.366743 -0.0257371 0)
(-0.403953 -0.0218312 0)
(-0.43653 -0.0173956 0)
(-0.462081 -0.0127897 0)
(-0.479068 -0.00806561 0)
(-0.486424 -0.00486663 0)
(-0.47738 -0.000502091 0)
(0.129043 -0.0423085 0)
(0.0947225 -0.0410236 0)
(0.0609012 -0.039506 0)
(0.027552 -0.0378336 0)
(-0.00541262 -0.0361317 0)
(-0.0382397 -0.0344225 0)
(-0.0712785 -0.0327259 0)
(-0.104871 -0.0310716 0)
(-0.139327 -0.0294155 0)
(-0.174893 -0.0277168 0)
(-0.211755 -0.0259427 0)
(-0.249992 -0.0240503 0)
(-0.289468 -0.0219786 0)
(-0.329674 -0.019646 0)
(-0.369513 -0.0169631 0)
(-0.407119 -0.0138785 0)
(-0.439955 -0.0104429 0)
(-0.465468 -0.00705321 0)
(-0.482013 -0.00367813 0)
(-0.488671 -0.00216327 0)
(-0.47905 0.000751998 0)
(0.12794 -0.0325748 0)
(0.0934125 -0.0310203 0)
(0.0594495 -0.0292714 0)
(0.0260275 -0.027391 0)
(-0.00695626 -0.0254747 0)
(-0.0397372 -0.0236523 0)
(-0.0727049 -0.0219151 0)
(-0.106271 -0.020242 0)
(-0.14073 -0.0186154 0)
(-0.17632 -0.0169966 0)
(-0.213232 -0.0153669 0)
(-0.251555 -0.0137013 0)
(-0.291169 -0.0119588 0)
(-0.331576 -0.0100807 0)
(-0.371667 -0.00800334 0)
(-0.409513 -0.00570121 0)
(-0.44244 -0.00325202 0)
(-0.467749 -0.00108732 0)
(-0.483645 0.000923602 0)
(-0.489386 0.000767247 0)
(-0.479038 0.00202142 0)
(0.126593 -0.0231996 0)
(0.0918893 -0.0213823 0)
(0.0578001 -0.0193986 0)
(0.0243199 -0.0173079 0)
(-0.00863563 -0.0151963 0)
(-0.0413317 -0.0131793 0)
(-0.074204 -0.0113281 0)
(-0.107694 -0.00957143 0)
(-0.142115 -0.00790023 0)
(-0.177679 -0.00629273 0)
(-0.214577 -0.00474324 0)
(-0.252905 -0.00324257 0)
(-0.292557 -0.00176915 0)
(-0.333043 -0.000288672 0)
(-0.373242 0.00123306 0)
(-0.411157 0.00278791 0)
(-0.443987 0.00425534 0)
(-0.468888 0.00519862 0)
(-0.483928 0.00582712 0)
(-0.489086 0.00386159 0)
(-0.477313 0.00325547 0)
(0.125006 -0.01411 0)
(0.090152 -0.0120205 0)
(0.0559531 -0.00978319 0)
(0.0224241 -0.00745463 0)