/*--------------------------------*- C++ -*----------------------------------*\
| =========                 |                                                 |
| \\      /  F ield         | OpenFOAM: The Open Source CFD Toolbox           |
|  \\    /   O peration     | Version:  v2012                                 |
|   \\  /    A nd           | Website:  www.openfoam.com                      |
|    \\/     M anipulation  |                                                 |
\*---------------------------------------------------------------------------*/
FoamFile
{
    version     2.0;
    format      ascii;
    class       volScalarField;
    location    "466";
    object      age;
}
// * * * * * * * * * * * * * * * * * * * * * * * * * * * * * * * * * * * * * //

dimensions      [0 0 1 0 0 0 0];


internalField   nonuniform List<scalar> 
6556
(
0.0125025
0.0124994
0.0124996
0.0124998
0.0124998
0.0124998
0.0124998
0.0124996
0.0124994
0.0125025
0.0375138
0.0374958
0.0374963
0.037497
0.0374974
0.0374974
0.037497
0.0374963
0.0374957
0.0375138
0.0625402
0.0624905
0.0624888
0.06249
0.0624908
0.0624908
0.06249
0.0624888
0.0624905
0.0625401
0.0875822
0.087485
0.087477
0.0874776
0.0874785
0.0874785
0.0874775
0.087477
0.0874849
0.0875822
0.11264
0.11248
0.112461
0.11246
0.11246
0.11246
0.112459
0.112461
0.11248
0.11264
0.137712
0.137476
0.137442
0.137436
0.137435
0.137435
0.137436
0.137442
0.137475
0.137712
0.162799
0.162472
0.162419
0.162407
0.162405
0.162404
0.162407
0.162419
0.162472
0.162799
0.1879
0.18747
0.187393
0.187373
0.187368
0.187368
0.187373
0.187392
0.187469
0.187899
0.213013
0.212469
0.212364
0.212334
0.212325
0.212325
0.212334
0.212363
0.212468
0.213012
0.238139
0.237468
0.237332
0.23729
0.237277
0.237277
0.23729
0.237331
0.237467
0.238137
0.263277
0.262469
0.262298
0.262243
0.262224
0.262224
0.262241
0.262296
0.262466
0.263274
0.288426
0.28747
0.287261
0.287191
0.287166
0.287166
0.287189
0.287258
0.287467
0.288422
0.313587
0.312473
0.312221
0.312135
0.312104
0.312103
0.312132
0.312217
0.312467
0.31358
0.338759
0.337476
0.33718
0.337075
0.337037
0.337035
0.337071
0.337173
0.337468
0.338748
0.363942
0.362481
0.362137
0.362012
0.361966
0.361963
0.362006
0.362127
0.362468
0.36393
0.389137
0.387488
0.387092
0.386946
0.38689
0.386887
0.386936
0.387077
0.387468
0.389099
0.414344
0.412497
0.412046
0.411877
0.411811
0.411806
0.411862
0.412023
0.412467
0.41437
0.439564
0.437509
0.437
0.436806
0.436728
0.43672
0.436783
0.436964
0.437463
0.439249
0.464798
0.462526
0.461954
0.461733
0.461642
0.461629
0.461697
0.4619
0.462457
0.46583
0.490049
0.487549
0.486911
0.48666
0.486553
0.486534
0.486604
0.486826
0.487437
0.48523
0.515319
0.512581
0.511872
0.511589
0.511463
0.511434
0.511503
0.511738
0.512404
0.535149
0.540613
0.537626
0.536842
0.536523
0.536376
0.536334
0.536398
0.536645
0.537371
0.569004
0.565935
0.56269
0.561825
0.561468
0.561296
0.561238
0.561298
0.561562
0.562336
0.602165
0.591293
0.587778
0.586827
0.586428
0.58623
0.586154
0.586209
0.586501
0.587314
0.634665
0.616695
0.612899
0.611855
0.611412
0.611184
0.611089
0.611141
0.611477
0.612326
0.666558
0.642151
0.638063
0.636918
0.636428
0.636168
0.636053
0.636104
0.636503
0.637381
0.697666
0.667672
0.66328
0.662028
0.661487
0.661192
0.661055
0.661111
0.661594
0.662494
0.727897
0.693272
0.688565
0.687194
0.686599
0.686267
0.686108
0.686172
0.686765
0.687676
0.757122
0.718967
0.713932
0.712433
0.71178
0.711407
0.711225
0.711304
0.712032
0.712931
0.785158
0.744777
0.739401
0.737761
0.737045
0.736628
0.736423
0.736524
0.737416
0.738267
0.811894
0.770724
0.764992
0.763198
0.762414
0.761951
0.761722
0.76185
0.762935
0.763708
0.837352
0.796835
0.790733
0.788767
0.787909
0.787396
0.787143
0.787304
0.788611
0.789277
0.861565
0.823141
0.816652
0.814497
0.813558
0.812991
0.812712
0.812909
0.814461
0.815001
0.884618
0.849679
0.842788
0.840419
0.83939
0.838765
0.838456
0.838688
0.840502
0.840909
0.906645
0.876493
0.869182
0.866572
0.865443
0.864753
0.86441
0.864671
0.866755
0.86703
0.927812
0.903636
0.895886
0.893003
0.891761
0.890998
0.890613
0.890889
0.893238
0.893399
0.948323
0.931172
0.922962
0.919767
0.918395
0.917551
0.917113
0.917384
0.919976
0.920054
0.968454
0.959175
0.950483
0.946932
0.945408
0.944471
0.943968
0.944206
0.946999
0.947047
0.988546
0.987738
0.978538
0.974579
0.972876
0.971834
0.971249
0.971417
0.974347
0.974439
1.00898
1.01697
1.00723
1.00281
1.00089
0.999726
0.999043
0.999101
1.00208
1.00231
1.03015
1.04701
1.0367
1.03174
1.02956
1.02826
1.02746
1.02736
1.03028
1.03072
1.05232
1.07801
1.0671
1.06152
1.05902
1.05755
1.05662
1.05632
1.05905
1.05985
1.07451
1.11019
1.09861
1.09232
1.08944
1.08777
1.08669
1.08616
1.08854
1.08989
1.09702
1.14379
1.13149
1.12438
1.12102
1.11911
1.11784
1.11706
1.11894
1.12106
1.12001
1.17913
1.16601
1.15796
1.154
1.15178
1.15032
1.14928
1.15049
1.15372
1.14305
1.21663
1.20257
1.19341
1.1887
1.18607
1.18437
1.18309
1.18345
1.18811
1.16993
1.25684
1.24164
1.23117
1.22552
1.22235
1.22033
1.21883
1.21825
1.22362
1.20855
1.30053
1.28388
1.27183
1.26496
1.26105
1.2586
1.25688
1.25545
1.26016
1.25241
1.34879
1.33021
1.31615
1.30771
1.30277
1.2997
1.29769
1.29564
1.29855
1.2972
1.40329
1.38196
1.36525
1.35471
1.34832
1.34432
1.34183
1.33942
1.34017
1.34183
1.46675
1.44118
1.42066
1.40722
1.39878
1.39341
1.39007
1.38739
1.38639
1.38798
1.54423
1.51152
1.48508
1.46732
1.4558
1.44831
1.44357
1.44031
1.43821
1.43837
1.64652
1.59864
1.56172
1.53747
1.52162
1.51108
1.50415
1.49962
1.49661
1.49533
1.80321
1.72343
1.6626
1.62409
1.59985
1.58421
1.57397
1.56735
1.56312
1.5607
2.10144
1.8948
1.7952
1.73571
1.69909
1.6748
1.65827
1.64729
1.64035
1.6363
7.22796
3.36937
2.11466
1.88955
1.81968
1.78532
1.76381
1.74823
1.73692
1.72927
13.785
9.55603
4.77476
2.56643
2.03344
1.92212
1.88216
1.86391
1.85311
1.84565
12.7389
13.3712
10.2497
5.95814
3.44699
2.38994
2.10681
2.02701
1.99348
1.97663
12.3097
12.3107
13.3863
10.2639
7.01527
4.6922
3.40444
2.74836
2.45016
2.32551
11.8727
10.981
10.6148
9.91711
8.44516
7.09856
6.08964
5.33926
4.77746
4.36647
134.005
156.746
156.728
157.327
158.278
159.71
161.843
164.691
168.371
172.185
176.401
180.721
184.453
187.32
189.273
190.357
190.544
190.705
190.863
191.024
191.195
191.387
191.622
191.964
194.002
131.953
154.358
152.179
152.277
152.478
153.324
155.733
161.316
171.244
183.406
196.886
210.909
224.453
236.473
246.013
252.328
255.036
252.914
245.929
234.908
221.587
208.558
198.692
193.659
193.612
125.941
153.172
151.789
151.643
151.565
151.834
152.879
157.684
171.621
191.866
215.901
242.788
270.647
296.883
318.727
333.788
340.335
337.669
325.702
304.973
277.18
246.129
218.244
199.814
193.939
119.112
152.738
151.75
151.542
151.335
151.325
151.86
154.483
169.056
195.751
230.174
271.451
316.834
361.578
399.982
426.986
439.123
435.041
415.378
382.323
339.049
290.057
243.26
209.076
194.858
111.997
152.745
152.22
152.013
151.378
151.138
151.221
152.237
164.188
194.391
237.402
292.46
356.382
421.859
479.119
519.787
538.553
533.207
504.894
457.809
397.962
331.758
267.795
218.724
195.971
103.909
153.008
153.458
153.493
152.177
151.156
150.956
151.205
158.534
187.967
236.08
301.725
382.022
467.235
542.836
597.023
623.107
617.499
581.891
522.263
447.372
366.172
288.131
226.894
196.942
95.2594
152.648
155.414
156.352
154.367
151.865
150.884
150.863
153.833
177.87
226.548
297.673
389.036
489.515
580.356
646.481
681.045
677.107
636.581
568.045
482.349
390.372
302.471
232.763
197.651
86.3527
151.142
157.625
160.313
158.176
153.955
151.149
150.606
151.046
166.595
210.609
280.991
376.324
484.983
586.215
661.606
703.548
700.886
662.791
590.623
500.112
403.037
310.225
236.09
198.078
77.2781
148.349
159.562
164.822
163.43
157.823
152.514
150.588
150.456
157.571
191.455
254.665
345.989
455.475
561.111
641.757
686.418
691.88
657.76
588.749
500.319
404.205
311.548
236.932
198.283
68.1152
144.066
160.9
169.081
169.515
163.327
155.607
151.028
150.251
152.065
172.941
223.629
303.513
405.833
510.017
592.783
641.974
652.923
624.674
564.925
484.607
394.898
307.059
235.492
198.478
59.0507
138.195
161.817
172.823
175.857
170.285
160.925
153.048
150.269
150.086
159.107
193.311
256.117
343.97
440.734
521.972
572.357
588.846
571.201
524.021
455.968
376.913
297.72
232.182
198.674
50.2363
130.403
161.996
175.216
181.869
178.061
168.205
157.559
151.138
149.912
151.734
168.847
211.383
278.874
362.138
439.608
491.594
512.812
505.383
471.691
418.042
352.442
284.706
227.562
198.873
41.822
120.756
160.711
176.771
186.972
186.229
177.414
165.344
154.867
150.08
149.783
154.552
176.207
220.046
283.367
351.926
405.755
432.559
433.975
413.37
374.634
323.97
269.597
222.594
199.083
33.9339
109.734
157.511
177.605
191.717
194.201
187.81
175.97
163.144
153.371
149.687
149.721
155.69
176.304
215.526
267.256
318.406
352.018
362.506
353.692
329.279
293.759
253.591
217.719
199.298
26.682
97.6972
152.114
177.318
194.201
201.865
198.969
189.005
175.617
162.496
153.081
149.616
149.693
153.898
169.275
198.197
236.714
272.146
293.271
295.885
284.779
264.056
238.616
214.94
200.514
20.1057
84.6498
144.275
175.655
195.668
208.433
210.191
203.712
191.979
177.9
164.318
154.2
149.52
148.857
150.673
158.048
175.197
199.812
224.922
241.222
245.519
239.539
229.751
218.289
207.049
14.5409
70.6732
133.695
172.054
195.589
213.356
220.512
218.655
210.497
198.309
184.174
170.091
158.201
150.884
147.802
147.698
149.021
154.266
164.466
176.714
187.497
192.234
187.122
174.813
158.578
10.2383
56.3458
120.137
165.696
193.616
215.775
228.796
232.406
228.976
220.58
208.92
195.415
181.38
168.163
157.247
150.195
146.147
144.591
144.546
144.486
144.42
144.347
144.153
142.023
139.293
7.07236
42.4324
103.642
155.598
189.121
214.974
234.038
243.624
245.667
242.089
234.471
224.062
211.896
198.884
185.89
173.764
163.343
155.294
150.179
147.128
145.488
144.742
144.618
145.294
149.419
4.8352
29.7575
84.6929
140.793
180.946
210.573
234.736
250.804
258.909
260.766
257.95
251.665
242.894
232.489
221.202
209.717
198.648
188.568
180.012
173.463
169.219
167.466
168.448
172.765
180.744
3.32546
19.0668
64.5868
120.952
167.525
201.883
229.898
252.021
266.671
274.622
277.215
275.647
270.954
263.958
255.418
246.138
236.773
227.938
220.096
213.685
209.178
207.001
207.496
211.036
217.46
2.36364
10.9397
44.2865
96.4664
147.39
187.492
219.191
245.619
266.421
280.981
289.737
293.621
293.594
290.455
285.088
278.197
270.443
262.663
255.713
250.106
246.053
243.732
243.357
245.144
249.074
1.78259
6.07828
26.6148
69.3987
120.082
165.34
201.684
231.468
256.417
276.536
291.591
303.126
308.925
308.664
307.46
303.766
298.785
292.204
284.999
278.654
273.988
271.123
270.023
270.451
272.338
1.45977
3.52775
13.7665
43.6828
87.8179
134.387
175.314
209.043
237.054
260.598
279.919
296.15
306.909
313.948
317.349
314.896
313.673
312.152
308.845
303.37
297.312
291.908
287.825
285.793
285.996
1.30311
2.26032
6.22767
22.6286
55.1277
96.7443
138.895
176.345
207.855
234.181
256.134
274.726
289.586
301.012
309.062
312.916
313.798
314.429
314.731
313.624
312.371
311.208
309.966
309.744
306.464
1.24164
1.63812
3.10017
9.53026
28.3311
58.8194
95.7021
133.049
167.039
196.317
220.922
241.493
258.567
272.45
283.215
291.375
296.531
299.229
300.175
299.873
298.779
297.328
295.897
294.754
294.162
1.23448
1.36938
1.92652
3.59157
11.0204
28.2629
54.0916
84.8805
116.64
146.491
172.974
195.677
214.781
230.598
243.313
253.24
260.61
265.695
268.878
270.59
271.23
271.156
270.662
269.984
269.326
1.25267
1.29513
1.45299
1.89574
3.49548
9.77279
23.101
42.6862
66.2901
91.3574
115.807
138.302
158.198
175.284
189.533
201.066
210.132
217.021
222.041
225.507
227.729
228.994
229.559
229.644
229.423
1.29129
1.30051
1.32523
1.43148
1.56841
2.40208
6.09257
14.296
27.2218
43.3624
61.1144
79.0849
96.2494
111.94
125.765
137.554
147.326
155.209
161.392
166.095
169.542
171.954
173.535
174.47
174.916
1.33877
1.33701
1.33681
1.3529
1.39603
1.51162
1.62643
2.63932
5.89461
11.8823
20.773
31.3509
42.6216
53.8369
64.4377
74.0506
82.4819
89.6677
95.6335
100.46
104.262
107.17
109.317
110.833
111.829
1.38843
1.38728
1.38306
1.37793
1.38467
1.41051
1.45186
1.53593
1.62409
1.69837
2.86161
5.26423
8.83094
13.3536
18.5653
24.074
29.3529
34.1683
38.4121
42.0444
45.0731
47.5348
49.4811
50.975
52.0748
1.43986
1.44115
1.44081
1.43707
1.43295
1.43205
1.44164
1.46341
1.49886
1.5364
1.59817
1.64836
1.69848
1.74858
1.96059
2.52456
3.34196
4.31327
5.34997
6.37973
7.35005
8.22542
8.98499
9.62109
10.1359
1.49597
1.4979
1.50032
1.50171
1.50132
1.49898
1.49802
1.49915
1.51109
1.52405
1.54591
1.57326
1.60324
1.63201
1.67102
1.70854
1.74063
1.7717
1.8025
1.83308
1.86342
1.89348
1.92325
1.95274
1.98197
1.56007
1.56116
1.56376
1.56734
1.57108
1.57402
1.57617
1.5779
1.57934
1.58435
1.59214
1.6026
1.61987
1.63652
1.65454
1.67644
1.7001
1.72435
1.74886
1.77352
1.79826
1.82304
1.84784
1.87264
1.89744
1.63447
1.6345
1.63621
1.63953
1.64421
1.6498
1.65576
1.66195
1.66764
1.67372
1.68053
1.68841
1.69726
1.70817
1.72071
1.73475
1.75031
1.7672
1.78524
1.804
1.82434
1.84556
1.86669
1.88764
1.9086
1.72476
1.72278
1.72288
1.72486
1.72857
1.73386
1.74048
1.74822
1.75679
1.76595
1.77564
1.78594
1.79674
1.80825
1.82061
1.83383
1.8479
1.86282
1.87857
1.89509
1.91226
1.93005
1.94841
1.9673
1.98665
1.84057
1.83751
1.83626
1.83676
1.83894
1.84273
1.84805
1.8548
1.86287
1.87211
1.88237
1.89355
1.90554
1.91828
1.93171
1.94582
1.96055
1.97589
1.99181
2.00827
2.02523
2.04265
2.06048
2.07871
2.09728
1.96896
1.96637
1.96663
1.96879
1.97241
1.97729
1.98333
1.99049
1.99872
2.00798
2.01823
2.0294
2.04144
2.05429
2.06787
2.08214
2.09703
2.11249
2.12848
2.14495
2.16185
2.17914
2.19679
2.21475
2.233
2.26555
2.2324
2.21286
2.20169
2.19609
2.19443
2.19571
2.19932
2.20483
2.21195
2.22046
2.23021
2.24106
2.25289
2.26562
2.27914
2.29339
2.30829
2.32377
2.33979
2.35627
2.37318
2.39047
2.40808
2.42606
4.08665
3.89895
3.76776
3.67216
3.6002
3.54498
3.50232
3.46945
3.44444
3.42585
3.41262
3.40389
3.39901
3.39743
3.39868
3.40236
3.40819
3.41588
3.42522
3.436
3.44804
3.46119
3.47531
3.49027
3.50605
199.802
200.09
135.93
181.506
152.396
133.241
143.218
135.308
138.007
138.597
144.285
156.502
157.288
170.372
185.744
191.062
203.53
217.311
225.753
235.153
245.65
254.494
260.889
268.338
275.472
279.536
284.561
287.612
290.098
293.397
301.951
299.076
298.019
294.175
294.708
295.326
268.849
268.628
268.75
229.076
228.725
228.417
175.034
174.95
174.743
112.406
112.684
112.778
52.8208
53.2956
53.5988
10.5094
10.7824
10.9857
2.00742
2.0326
2.05761
1.92071
1.94238
1.96436
1.9287
1.94793
1.96696
2.00514
2.02269
2.04046
2.11499
2.13175
2.14871
2.25035
2.26674
2.28328
2.44267
2.45872
2.4749
3.5204
3.53507
3.55001
153.808
137.358
127.533
126.61
126.191
125.956
125.807
125.672
125.553
125.444
125.345
125.254
125.168
125.087
125.011
124.937
124.867
124.8
124.734
124.671
124.609
124.548
124.489
124.431
124.374
124.319
124.263
124.209
124.155
124.102
124.05
123.998
123.946
123.895
123.844
123.793
123.743
123.692
123.642
123.592
123.54
123.482
123.415
123.341
123.259
123.167
123.067
122.958
122.841
122.716
122.586
122.452
122.319
122.19
122.073
121.976
121.904
121.827
121.743
121.649
121.542
121.425
121.359
121.464
121.704
122.209
123.204
124.177
125.313
126.564
128.004
129.449
130.526
131.053
131.222
131.367
131.515
131.68
131.872
132.815
138.729
130.628
127.088
126.658
126.537
126.634
126.91
127.36
127.98
128.751
129.649
130.643
131.69
132.757
133.828
134.889
135.931
136.948
137.933
138.884
139.799
140.676
141.514
142.312
143.07
143.788
144.465
145.101
145.696
146.248
146.757
147.221
147.639
148.009
148.328
148.594
148.804
148.955
149.04
149.058
149.004
148.874
148.654
148.338
147.918
147.386
146.735
145.955
145.037
143.974
142.756
141.376
139.83
138.114
136.237
134.228
132.152
130.024
127.905
125.87
124.011
122.403
121.148
120.452
120.239
120.156
121.008
123.06
126.101
130.18
135.091
140.287
144.934
148.164
148.803
146.396
141.751
136.805
133.496
132.911
133.13
127.998
127.158
127.128
127.802
129.114
131.084
133.649
136.671
139.996
143.483
147.022
150.534
153.992
157.361
160.618
163.749
166.746
169.605
172.327
174.913
177.365
179.689
181.886
183.962
185.92
187.762
189.492
191.11
192.619
194.016
195.303
196.477
197.535
198.473
199.287
199.969
200.514
200.912
201.153
201.229
201.131
200.851
200.368
199.668
198.731
197.539
196.07
194.301
192.209
189.769
186.956
183.747
180.119
176.055
171.543
166.584
161.194
155.416
149.326
143.053
136.795
130.867
125.799
122.207
120.11
119.629
120.902
124.534
130.581
138.927
148.891
159.108
167.251
170.621
167.543
158.475
146.635
137.107
133.362
130.925
127.644
127.515
128.565
130.886
134.491
139.247
144.865
151.022
157.45
163.945
170.369
176.632
182.674
188.458
193.963
199.183
204.12
208.78
213.175
217.316
221.217
224.89
228.349
231.603
234.663
237.537
240.234
242.757
245.113
247.303
249.328
251.187
252.88
254.4
255.744
256.903
257.868
258.629
259.171
259.481
259.542
259.337
258.845
258.04
256.895
255.382
253.467
251.114
248.286
244.942
241.039
236.532
231.377
225.532
218.958
211.628
203.529
194.672
185.106
174.936
164.338
153.598
143.138
133.576
125.803
121.058
119.338
121.274
127.015
136.722
149.988
165.453
179.731
187.507
184.896
172.916
155.795
140.771
133.891
130.085
127.772
128.454
131.118
135.802
142.369
150.389
159.33
168.736
178.266
187.683
196.829
205.607
213.96
221.866
229.319
236.332
242.921
249.11
254.923
260.384
265.518
270.346
274.888
279.163
283.186
286.971
290.529
293.869
296.997
299.918
302.635
305.146
307.451
309.545
311.422
313.071
314.483
315.644
316.538
317.146
317.448
317.42
317.04
316.279
315.103
313.477
311.36
308.707
305.471
301.597
297.03
291.709
285.569
278.544
270.567
261.578
251.524
240.373
228.121
214.817
200.582
185.642
170.368
155.329
141.372
129.722
122.075
119.132
121.791
129.693
142.957
160.614
179.224
191.441
192.68
181.022
161.354
143.219
134.288
129.719
127.975
129.937
134.668
142.179
151.996
163.358
175.544
188.005
200.361
212.363
223.86
234.771
245.064
254.739
263.815
272.323
280.296
287.773
294.788
301.378
307.573
313.404
318.897
324.076
328.959
333.565
337.907
341.997
345.843
349.451
352.824
355.963
358.865
361.525
363.935
366.086
367.964
369.552
370.833
371.784
372.381
372.596
372.399
371.761
370.646
369.013
366.818
364.015
360.55
356.368
351.406
345.6
338.875
331.155
322.357
312.394
301.181
288.639
274.705
259.352
242.606
224.589
205.56
185.981
166.6
148.53
133.311
122.967
118.954
122.16
131.695
147.382
166.859
183.688
189.574
181.027
162.554
144.103
134.514
129.554
128.431
131.869
139
149.569
162.671
177.241
192.417
207.601
222.403
236.594
250.052
262.73
274.629
285.775
296.21
305.981
315.138
323.73
331.804
339.402
346.565
353.327
359.721
365.773
371.507
376.943
382.098
386.982
391.607
395.977
400.095
403.959
407.566
410.907
413.972
416.746
419.21
421.343
423.121
424.514
425.491
426.018
426.058
425.57
424.519
422.862
420.551
417.542
413.784
409.228
403.819
397.502
390.213
381.885
372.441
361.796
349.853
336.512
321.666
305.219
287.106
267.319
245.958
223.299
199.879
176.604
154.827
136.413
123.693
118.791
122.226
132.49
148.881
166.845
177.342
174.385
160.093
143.705
134.702
129.538
129.063
134.166
143.916
157.609
173.879
191.409
209.244
226.774
243.636
259.641
274.717
288.857
302.095
314.483
326.084
336.963
347.184
356.808
365.891
374.485
382.636
390.385
397.767
404.812
411.547
417.992
424.164
430.073
435.728
441.131
446.281
451.171
455.793
460.13
464.163
467.868
471.216
474.174
476.704
478.765
480.31
481.292
481.659
481.359
480.344
478.565
475.973
472.524
468.178
462.896
456.646
449.398
441.122
431.784
421.346
409.755
396.943
382.822
367.281
350.193
331.426
310.867
288.459
264.263
238.541
211.866
185.241
160.227
139.01
124.236
118.6
121.8
131.848
147.517
161.433
164.138
155.477
142.515
134.889
129.584
129.788
136.784
149.285
166.065
185.303
205.487
225.621
245.121
263.68
281.171
297.575
312.928
327.297
340.762
353.409
365.319
376.573
387.245
397.399
407.097
416.389
425.322
433.933
442.255
450.312
458.124
465.706
473.064
480.202
487.115
493.795
500.226
506.387
512.251
517.783
522.942
527.68
531.944
535.673
538.8
541.255
542.964
543.853
543.845
542.868
540.861
537.766
533.541
528.152
521.584
513.834
504.915
494.851
483.671
471.405
458.072
443.673
428.178
411.521
393.587
374.227
353.262
330.518
305.878
279.348
251.153
221.846
192.477
164.769
141.135
124.605
118.309
120.918
130.239
144.405
153.63
150.044
141.122
135.084
129.714
130.604
139.73
155.073
174.839
196.793
219.291
241.354
262.46
282.385
301.07
318.553
334.915
350.258
364.692
378.324
391.26
403.593
415.411
426.79
437.797
448.489
458.913
469.111
479.111
488.939
498.611
508.134
517.511
526.736
535.796
544.67
553.329
561.736
569.844
577.597
584.928
591.762
598.011
603.58
608.363
612.249
615.122
616.866
617.368
616.522
614.235
610.434
605.071
598.124
589.6
579.541
568.018
555.128
540.99
525.732
509.482
492.346
474.4
455.664
436.095
415.574
393.911
370.867
346.19
319.682
291.281
261.154
229.837
198.388
168.54
142.886
124.77
117.769
119.685
128.108
141.08
145.728
139.802
135.295
129.85
131.547
143.108
161.363
183.971
208.34
232.784
256.394
278.753
299.728
319.338
337.679
354.876
371.069
386.399
401
414.994
428.495
441.601
454.398
466.959
479.345
491.606
503.782
515.903
527.989
540.052
552.096
564.113
576.089
587.999
599.809
611.471
622.928
634.108
644.928
655.287
665.069
674.144
682.363
689.564
695.576
700.219
703.315
704.691
704.189
701.673
697.035
690.217
681.207
670.046
656.83
641.706
624.871
606.557
587.02
566.521
545.306
523.584
501.504
479.13
456.428
433.255
409.363
384.426
358.095
330.083
300.251
268.722
235.988
203.057
171.657
144.411
124.833
117.03
118.045
126.079
139.375
139.037
135.525
129.968
132.772
147.103
168.37
193.627
220.053
246.031
270.787
294.035
315.748
336.023
355.011
372.883
389.817
405.982
421.535
436.621
451.367
465.881
480.258
494.577
508.903
523.286
537.769
552.38
567.137
582.05
597.115
612.32
627.642
643.043
658.474
673.873
689.158
704.231
718.974
733.248
746.888
759.707
771.489
781.996
790.969
798.14
803.239
806.007
806.207
803.643
798.147
789.646
778.14
763.716
746.546
726.883
705.047
681.414
656.393
630.403
603.846
577.082
550.4
523.995
497.944
472.191
446.54
420.661
394.124
366.475
337.331
306.495
274.053
240.462
206.673
174.317
145.914
125.017
116.062
115.712
124.714
138.234
135.759
130.071
134.671
152.224
176.534
204.135
232.148
259.168
284.624
308.377
330.506
351.179
370.6
388.981
406.532
423.447
439.905
456.064
472.062
488.018
504.033
520.191
536.561
553.196
570.141
587.424
605.065
623.073
641.441
660.155
679.185
698.487
718.001
737.649
757.333
776.929
796.286
815.223
833.526
850.941
867.174
881.888
894.714
905.26
913.129
917.936
919.334
917.039
910.797
900.512
886.208
868.035
846.278
821.332
793.678
763.865
732.473
700.093
667.288
634.57
602.365
570.991
540.636
511.342
482.995
455.318
427.888
400.168
371.602
341.732
310.323
277.453
243.569
209.549
176.858
147.8
125.717
114.747
112.87
122.943
136.115
130.147
137.306
159.017
186.421
215.901
244.883
272.354
298.001
321.84
344.04
364.83
384.454
403.155
421.163
438.692
455.931
473.049
490.191
507.482
525.027
542.915
561.217
579.993
599.288
619.136
639.56
660.569
682.161
704.322
727.023
750.22
773.849
797.827
822.043
846.357
870.593
894.536
917.925
940.449
961.734
981.337
998.757
1013.45
1024.83
1032.35
1035.49
1033.83
1027.07
1015.07
997.912
975.836
949.248
918.728
884.956
848.678
810.659
771.651
732.366
693.444
655.431
618.748
583.676
550.341
518.704
488.564
459.558
431.172
402.785
373.766
343.612
312.093
279.321
245.766
212.242
179.988
150.88
127.672
113.894
109.53
111.765
131.1
143.874
169.518
199.104
229.421
258.474
285.682
310.955
334.43
356.339
376.946
396.517
415.309
433.561
451.492
469.294
487.139
505.172
523.52
542.29
561.572
581.441
601.959
623.176
645.128
667.843
691.334
715.605
740.646
766.431
792.92
820.053
847.747
875.886
904.323
932.87
961.295
989.325
1016.64
1042.83
1067.4
1089.74
1109.06
1124.47
1135.13
1140.4
1139.75
1132.81
1119.38
1099.7
1074.24
1043.41
1007.93
968.712
926.695
882.825
837.994
793.019
748.629
705.448
663.974
624.559
587.395
552.509
519.759
488.857
459.366
430.713
402.232
373.267
343.327
312.23
280.172
247.707
215.661
185.082
157.296
134.01
117.099
107.473
136.744
157.341
185.267
215.164
244.796
272.839
299.02
323.363
346.037
367.295
387.409
406.647
425.262
443.486
461.53
479.58
497.798
516.328
535.29
554.789
574.913
595.737
617.323
639.72
662.969
687.097
712.12
738.044
764.862
792.551
821.075
850.375
880.372
910.955
941.983
973.288
1004.68
1035.98
1066.97
1097.41
1126.82
1154.11
1176.51
1193.04
1204.37
1210.64
1211.38
1205.99
1193.25
1172.39
1145.09
1111.91
1073.55
1031.04
985.487
937.966
889.474
840.888
792.976
746.395
701.681
659.232
619.298
581.968
547.159
514.647
484.078
454.974
426.749
398.75
370.364
341.179
311.105
280.45
249.891
220.384
193.044
169.043
149.496
135.342
152.215
177.473
205.263
233.676
261.303
287.414
311.919
334.863
356.377
376.669
395.995
414.611
432.752
450.63
468.436
486.339
504.488
523.013
542.026
561.62
581.879
602.872
624.654
647.273
670.763
695.15
720.446
746.652
773.757
801.735
830.542
860.125
890.406
921.277
952.605
984.227
1015.97
1047.66
1079.14
1110.19
1140.39
1169.08
1190.65
1204.67
1215.08
1222.22
1228.69
1226.47
1216.17
1196.29
1169.7
1137.3
1099.57
1057.46
1012.08
964.56
915.906
867.014
818.652
771.477
726.037
682.76
641.93
603.705
568.07
534.871
503.835
474.582
446.644
419.467
392.469
365.157
337.258
308.813
280.213
252.151
225.526
201.347
180.634
164.257
176.772
201.789
227.376
253.004
277.788
301.382
323.757
344.942
365.01
384.088
402.374
420.094
437.461
454.66
471.852
489.182
506.774
524.736
543.168
562.154
581.762
602.052
623.069
644.853
667.427
690.809
715.001
739.994
765.768
792.288
819.505
847.36
875.776
904.645
933.831
963.165
992.46
1021.51
1050.07
1077.9
1104.56
1129.76
1151.59
1168.49
1180.52
1187.86
1190.41
1187.06
1177.29
1161.05
1138.58
1110.31
1076.92
1039.25
998.26
954.928
910.169
864.813
819.588
775.131
731.985
690.592
651.262
614.201
579.466
546.983
516.568
487.938
460.738
434.543
408.875
383.278
357.427
331.229
304.874
278.833
253.784
230.512
209.805
192.327
205.433
227.287
249.472
271.615
293.165
313.947
333.923
353.086
371.463
389.112
406.148
422.739
439.056
455.249
471.449
487.775
504.325
521.184
538.435
556.142
574.362
593.139
612.506
632.489
653.102
674.348
696.221
718.701
741.757
765.345
789.414
813.901
838.724
863.78
888.934
914.027
938.872
963.256
986.925
1009.59
1030.89
1050.45
1067.77
1082.15
1092.92
1099.56
1101.65
1098.89
1091.05
1078.08
1060.09
1037.36
1010.36
979.646
945.891
909.787
872.034
833.302
794.218
755.356
717.221
680.239
644.737
610.932
578.929
548.724
520.222
493.236
467.517
442.756
418.596
394.678
370.708
346.547
322.256
298.13
274.671
252.506
232.247
214.357
233.467
251.335
269.737
288.231
306.487
324.376
341.831
358.812
375.312
391.339
406.931
422.177
437.198
452.1
466.982
481.933
497.028
512.332
527.901
543.787
560.028
576.655
593.69
611.146
629.028
647.329
666.035
685.12
704.547
724.269
744.235
764.384
784.635
804.895
825.046
844.954
864.463
883.396
901.544
918.671
934.505
948.733
961.047
971.113
978.556
983.008
984.124
981.728
975.676
965.915
952.48
935.511
915.25
892.02
866.214
838.283
808.705
777.967
746.548
714.906
683.457
652.558
622.497
593.479
565.629
538.988
513.522
489.131
465.652
442.869
420.53
398.381
376.207
353.894
331.462
309.089
287.117
266.008
246.25
228.226
257.969
272.02
286.758
301.788
316.9
331.968
346.904
361.647
376.158
390.399
404.365
418.078
431.593
444.973
458.279
471.575
484.912
498.337
511.886
525.593
539.484
553.578
567.89
582.422
597.175
612.139
627.295
642.618
658.071
673.613
689.195
704.763
720.251
735.581
750.664
765.397
779.666
793.342
806.282
818.324
829.288
838.976
847.179
853.686
858.285
860.778
860.973
858.745
853.999
846.69
836.822
824.462
809.737
792.818
773.931
753.348
731.367
708.301
684.471
660.185
635.734
611.375
587.318
563.725
540.704
518.306
496.528
475.312
454.557
434.12
413.841
393.556
373.133
352.497
331.675
310.808
290.154
270.053
250.862
232.929
277.412
288.099
299.543
311.454
323.679
336.094
348.597
361.104
373.564
385.916
398.114
410.128
421.965
433.648
445.208
456.678
468.091
479.475
490.853
502.246
513.669
525.134
536.647
548.212
559.824
571.475
583.148
594.823
606.47
618.056
629.542
640.886
652.04
662.948
673.548
683.771
693.539
702.771
711.374
719.251
726.292
732.383
737.4
741.219
743.718
744.781
744.305
742.213
738.445
732.968
725.779
716.909
706.424
694.415
681.008
666.354
650.622
633.993
616.65
598.774
580.54
562.103
543.595
525.119
506.749
488.519
470.425
452.427
434.454
416.415
398.207
379.733
360.928
341.777
322.34
302.756
283.246
264.081
245.543
227.899
290.968
298.762
307.342
316.499
326.109
336.044
346.214
356.534
366.935
377.34
387.671
397.874
407.925
417.818
427.559
437.158
446.628
455.983
465.235
474.395
483.472
492.472
501.4
510.257
519.041
527.745
536.358
544.865
553.247
561.479
569.536
577.39
585.009
592.359
599.4
606.09
612.384
618.231
623.579
628.372
632.549
636.047
638.798
640.736
641.793
641.905
641.023
639.1
636.097
631.993
626.78
620.468
613.085
604.672
595.289
585.013
573.927
562.122
549.69
536.722
523.31
509.534
495.458
481.134
466.593
451.838
436.848
421.584
405.988
389.995
373.549
356.611
339.174
321.281
303.029
284.572
266.111
247.88
230.105
213.008
297.779
303.267
309.476
316.245
323.5
331.148
339.112
347.31
355.663
364.087
372.5
380.838
389.062
397.147
405.083
412.862
420.484
427.95
435.263
442.428
449.448
456.328
463.069
469.674
476.142
482.469
488.645
494.662
500.509
506.17
511.631
516.875
521.884
526.638
531.116
535.294
539.148
542.65
545.772
548.485
550.757
552.554
553.843
554.587
554.755
554.318
553.242
551.5
549.068
545.927
542.067
537.484
532.182
526.173
519.477
512.123
504.144
495.577
486.459
476.826
466.714
456.149
445.148
433.717
421.85
409.521
396.697
383.335
369.392
354.835
339.649
323.85
307.487
290.65
273.467
256.104
238.749
221.605
204.857
188.687
298.717
300.973
304.401
308.71
313.688
319.188
325.101
331.326
337.768
344.336
350.947
357.537
364.058
370.477
376.769
382.919
388.917
394.758
400.437
405.955
411.314
416.514
421.558
426.445
431.177
435.749
440.155
444.387
448.44
452.305
455.975
459.44
462.69
465.717
468.508
471.052