/*--------------------------------*- C++ -*----------------------------------*\
| =========                 |                                                 |
| \\      /  F ield         | OpenFOAM: The Open Source CFD Toolbox           |
|  \\    /   O peration     | Version:  v2012                                 |
|   \\  /    A nd           | Website:  www.openfoam.com                      |
|    \\/     M anipulation  |                                                 |
\*---------------------------------------------------------------------------*/
FoamFile
{
    version     2.0;
    format      ascii;
    class       volScalarField;
    location    "466";
    object      k;
}
// * * * * * * * * * * * * * * * * * * * * * * * * * * * * * * * * * * * * * //

dimensions      [0 2 -2 0 0 0 0];


internalField   nonuniform List<scalar> 
6556
(
1.26276
1.57697
1.63227
1.646
1.65175
1.65175
1.646
1.63227
1.57697
1.26276
0.746362
1.16093
1.26945
1.30261
1.31284
1.31284
1.30261
1.26945
1.16093
0.746362
0.492812
0.882306
1.01071
1.05701
1.0721
1.0721
1.05701
1.01071
0.882306
0.492813
0.352206
0.692008
0.821932
0.874886
0.893671
0.893671
0.874886
0.821933
0.692009
0.352206
0.266605
0.557928
0.681111
0.736084
0.757035
0.757035
0.736085
0.681112
0.557929
0.266605
0.210584
0.460395
0.573789
0.627925
0.649727
0.649727
0.627926
0.573791
0.460397
0.210584
0.171783
0.387334
0.490332
0.542047
0.563753
0.563753
0.542049
0.490335
0.387336
0.171784
0.143671
0.331161
0.424221
0.472746
0.493749
0.493749
0.472748
0.424224
0.331165
0.143672
0.122549
0.286983
0.370965
0.416021
0.435973
0.435974
0.416024
0.37097
0.286988
0.12255
0.106202
0.251548
0.327417
0.369003
0.387735
0.387736
0.369007
0.327423
0.251555
0.106205
0.093238
0.222636
0.291328
0.329595
0.347053
0.347055
0.329601
0.291336
0.222645
0.0932409
0.0827436
0.198694
0.261062
0.296235
0.312435
0.312438
0.296243
0.261072
0.198706
0.0827474
0.0741004
0.178609
0.235408
0.267741
0.28274
0.282744
0.267751
0.235423
0.178625
0.0741056
0.0668763
0.161566
0.213459
0.243207
0.257082
0.257087
0.243221
0.213479
0.161588
0.0668835
0.0607614
0.146959
0.194518
0.221927
0.234764
0.234772
0.221947
0.194546
0.146989
0.060771
0.0555279
0.134329
0.17805
0.203348
0.215234
0.215245
0.203376
0.178088
0.13437
0.0555411
0.0510055
0.12332
0.163631
0.187028
0.198048
0.198062
0.187067
0.163683
0.123376
0.0510233
0.0470642
0.113656
0.150928
0.172611
0.182844
0.182864
0.172665
0.151001
0.11373
0.0470879
0.043603
0.105117
0.139671
0.15981
0.169331
0.169357
0.159883
0.139774
0.105214
0.0436342
0.0405426
0.0975265
0.129644
0.148388
0.157264
0.157299
0.148487
0.129782
0.097629
0.0405805
0.0378195
0.090742
0.120666
0.138151
0.146443
0.146491
0.138286
0.120855
0.0909123
0.0377982
0.0353826
0.0846461
0.11259
0.128935
0.1367
0.136764
0.129116
0.112848
0.0848987
0.0361662
0.03319
0.0791425
0.105293
0.120605
0.127894
0.127977
0.12084
0.105631
0.079561
0.0355138
0.0312072
0.0741509
0.0986731
0.113046
0.119904
0.120007
0.113333
0.0990655
0.0748759
0.035902
0.0294058
0.0696041
0.0926432
0.106162
0.112629
0.112749
0.106481
0.0930907
0.0708801
0.0374038
0.0277616
0.0654453
0.0871299
0.0998702
0.105981
0.10612
0.100216
0.0877054
0.0675742
0.039901
0.0262543
0.0616262
0.0820705
0.0940996
0.0998897
0.100055
0.0945255
0.0829043
0.0648584
0.0431394
0.0248668
0.0581053
0.0774109
0.0887901
0.0942911
0.0944938
0.0893519
0.0786415
0.0627163
0.0468308
0.023584
0.0548469
0.0731048
0.0838895
0.0891322
0.0893871
0.0846466
0.0748728
0.0611034
0.0505163
0.0223932
0.05182
0.0691116
0.0793525
0.0843664
0.0846894
0.0803652
0.0715498
0.0599122
0.0534438
0.021283
0.0489973
0.0653961
0.0751399
0.0799531
0.0803608
0.0764669
0.0686228
0.0590377
0.0556785
0.0202437
0.0463561
0.0619273
0.0712169
0.0758564
0.0763655
0.0729136
0.0660406
0.0583762
0.0572886
0.0192665
0.0438749
0.0586781
0.0675533
0.0720448
0.0726711
0.0696684
0.0637457
0.0577777
0.0583279
0.0183435
0.0415348
0.0556245
0.0641221
0.06849
0.0692479
0.0666961
0.0616824
0.0571644
0.0588477
0.0174677
0.0393193
0.0527451
0.0608996
0.065167
0.0660691
0.0639633
0.0597981
0.0564854
0.0588933
0.0166328
0.0372139
0.0500209
0.0578647
0.0620534
0.0631099
0.0614387
0.0580453
0.0557024
0.0585042
0.015833
0.0352057
0.0474351
0.0549986
0.059129
0.0603481
0.059094
0.0563878
0.0547934
0.0577229
0.0150629
0.0332832
0.0449725
0.0522847
0.056376
0.0577637
0.0569048
0.0547981
0.0537521
0.0565959
0.0143176
0.0314366
0.0426199
0.0497078
0.0537785
0.0553391
0.0548511
0.0532586
0.0525885
0.0551813
0.0135928
0.0296572
0.0403653
0.0472546
0.0513218
0.0530587
0.052917
0.0517611
0.0513283
0.0535515
0.0128845
0.0279376
0.0381976
0.0449123
0.0489924
0.0509084
0.0510903
0.0503061
0.0500091
0.0517912
0.0121889
0.0262713
0.0361066
0.0426682
0.0467766
0.0488746
0.0493613
0.0488996
0.0486765
0.0499937
0.0115027
0.0246522
0.0340818
0.0405091
0.0446594
0.0469427
0.0477203
0.0475493
0.0473758
0.0482514
0.0108228
0.0230745
0.0321123
0.0384199
0.0426235
0.0450951
0.0461547
0.0462594
0.0461444
0.0466448
0.0101464
0.0215328
0.0301857
0.0363831
0.0406476
0.0433094
0.0446462
0.0450245
0.045003
0.0452291
0.00947062
0.0200216
0.0282885
0.0343771
0.0387048
0.0415561
0.0431669
0.0438259
0.0439483
0.0440229
0.00879276
0.0185357
0.0264051
0.0323768
0.0367621
0.0397973
0.0416777
0.0426273
0.0429489
0.0430019
0.00810999
0.0170695
0.0245186
0.0303524
0.0347797
0.0379857
0.040127
0.0413746
0.0419457
0.0420983
0.00741908
0.0156171
0.0226109
0.0282709
0.0327117
0.0360659
0.0384521
0.0399974
0.0408556
0.0412077
0.00671603
0.0141718
0.0206632
0.0260975
0.0305087
0.0339768
0.0365821
0.0384141
0.0395794
0.0402021
0.00599511
0.0127229
0.0186569
0.0237992
0.0281232
0.031658
0.0344452
0.0365403
0.0380132
0.0389458
0.00524775
0.0112554
0.0165756
0.0213524
0.0255194
0.0290607
0.0319802
0.0343013
0.036063
0.0373147
0.0044509
0.00979035
0.0144235
0.0187543
0.0226873
0.0261649
0.0291553
0.031651
0.0336641
0.0352166
0.00358813
0.00846654
0.0123452
0.0161068
0.019694
0.0230148
0.0259968
0.0285987
0.0308034
0.0326107
0.002678
0.00730133
0.0105818
0.0136956
0.0167902
0.0198096
0.0226582
0.0252579
0.0275625
0.0295422
0.00168512
0.00614896
0.00914393
0.0117535
0.0143233
0.0169148
0.0194716
0.021915
0.0241754
0.0262008
0.000981529
0.00470373
0.00769891
0.0101556
0.0124154
0.0146396
0.0168535
0.0190176
0.0210764
0.022973
0.000786679
0.00291178
0.0059482
0.00852341
0.0107798
0.0128599
0.014834
0.0167112
0.0184785
0.0201155
0.000829198
0.00196661
0.00431639
0.00678535
0.00909274
0.011132
0.0129412
0.0145451
0.0159585
0.017217
0.000910346
0.00158161
0.00235462
0.00350365
0.00471801
0.00595242
0.00682863
0.00758833
0.00825386
0.00881235
0.00800534
0.00313992
0.00328708
0.00349667
0.0036683
0.00377258
0.00380259
0.00375218
0.0036067
0.00343545
0.0032377
0.00301445
0.00277377
0.0025275
0.00228221
0.002042
0.00180504
0.00159987
0.00141273
0.00123605
0.00106472
0.000893945
0.000717736
0.000526849
0.00028965
0.0156251
0.00768176
0.00695135
0.00713548
0.00740042
0.00758363
0.00762939
0.00751291
0.00720287
0.00677843
0.0063021
0.00579995
0.00529505
0.0048073
0.00434864
0.00392328
0.00352736
0.00312989
0.00273576
0.00234826
0.00197394
0.00162215
0.00131083
0.00102952
0.00053903
0.024236
0.0124475
0.00980444
0.00929854
0.00925573
0.00922957
0.00909485
0.0088174
0.00836695
0.0077694
0.00713508
0.00650168
0.00588999
0.00531774
0.00479814
0.00433526
0.00392262
0.00353552
0.0031605
0.00278505
0.00239997
0.00200688
0.00162726
0.00126914
0.000647674
0.0339256
0.0186955
0.0131796
0.0115279
0.0108526
0.0103951
0.00992358
0.00937623
0.00872721
0.0079774
0.007218
0.00650408
0.0058416
0.00524286
0.00471863
0.0042693
0.00388472
0.00354158
0.00321965
0.00289842
0.00255742
0.00218423
0.00178625
0.00137175
0.000691446
0.0436294
0.0270814
0.0178641
0.0142728
0.0126353
0.0115502
0.0106263
0.00973419
0.00884334
0.00795914
0.00709006
0.00629723
0.00559051
0.00497648
0.00445981
0.00403518
0.00368745
0.00339211
0.00312416
0.00285892
0.0025704
0.00223629
0.00184877
0.00140338
0.000696143
0.0510802
0.0359076
0.0236909
0.0177168
0.0148058
0.0129357
0.0114476
0.0101525
0.00898105
0.00791912
0.00695769
0.00608239
0.00532526
0.00468664
0.0041686
0.00376105
0.00344418
0.00319059
0.00296944
0.00275241
0.00251064
0.00221636
0.0018508
0.00139428
0.000678847
0.0562094
0.044535
0.0304039
0.0219802
0.0175079
0.0146763
0.0125415
0.0107717
0.00926725
0.00798864
0.00689605
0.00595576
0.00514495
0.00445952
0.00392033
0.00351174
0.00321149
0.00298831
0.00280352
0.00262437
0.00241978
0.00215902
0.00181637
0.00136016
0.000649134
0.0598678
0.0515217
0.0371184
0.02699
0.0208543
0.016866
0.0139383
0.0116319
0.00975652
0.00822277
0.00696342
0.00592426
0.00505654
0.00433263
0.0037522
0.00331816
0.0030143
0.00280811
0.00264869
0.00249722
0.00232013
0.00208492
0.00176132
0.00131037
0.000611166
0.0625557
0.0571621
0.0435414
0.0324858
0.024759
0.0195263
0.015699
0.0127544
0.010436
0.00861562
0.00717206
0.00601091
0.00506415
0.00428385
0.00365291
0.00318033
0.00286153
0.00265795
0.00251193
0.00237855
0.00222086
0.00200468
0.00169607
0.00125172
0.000569074
0.0644803
0.061541
0.0494846
0.0379198
0.028983
0.0225762
0.0178161
0.0141728
0.0113498
0.00918746
0.00751507
0.00621035
0.00517038
0.00431856
0.00362236
0.00309102
0.002736
0.00252333
0.00238376
0.00226297
0.00211972
0.00191818
0.00162203
0.00118591
0.00053152
0.0657868
0.0648251
0.0547462
0.0431351
0.0333531
0.0258967
0.0202243
0.0158769
0.0125304
0.00997949
0.00802828
0.00653684
0.00537965
0.00444608
0.00367258
0.00306082
0.00264064
0.0023971
0.00225588
0.00214411
0.00201324
0.00182469
0.00154019
0.00111334
0.000495471
0.0666124
0.0672232
0.0591406
0.0479609
0.0377705
0.0293722
0.0228516
0.0178338
0.013977
0.0110113
0.0087578
0.00702933
0.00571835
0.00469437
0.00383995
0.00312685
0.00260184
0.00228777
0.00212603
0.00201671
0.00189691
0.0017223
0.00145184
0.00103747
0.000459554
0.0670022
0.0688317
0.0625373
0.0523032
0.0419106
0.0328332
0.0256061
0.0199944
0.0156722
0.0123339
0.00974901
0.00775206
0.00623803
0.00509449
0.00416588
0.00334713
0.00268184
0.00223901
0.00200776
0.00188235
0.00176922
0.00161112
0.00136204
0.000969722
0.000424126
0.0669638
0.0697152
0.0650244
0.0559364
0.0455984
0.0361633
0.0284113
0.0223161
0.0176001
0.0139356
0.0110595
0.00878802
0.00701637
0.00569201
0.00467226
0.00378358
0.00297574
0.00234562
0.00195527
0.00176264
0.00164162
0.00150237
0.00128624
0.000934997
0.000393022
0.0664921
0.0699188
0.0666501
0.0587839
0.0488358
0.0393685
0.0312142
0.0247535
0.0197412
0.0158274
0.0127154
0.0101938
0.00816826
0.00658229
0.00538301
0.00443404
0.00356542
0.00277019
0.00215883
0.00176649
0.00157555
0.00144568
0.00128019
0.00100364
0.000490773
0.0655807
0.0694622
0.0674426
0.060775
0.051602
0.0422176
0.0339236
0.0272522
0.0220582
0.0179897
0.0147326
0.0120408
0.00979384
0.00794119
0.00643844
0.00527361
0.0043468
0.00352224
0.0027974
0.00221271
0.00178727
0.00156315
0.00138985
0.00117579
0.000933319
0.0642459
0.0684134
0.0674569
0.0619956
0.0538174
0.0447511
0.0365862
0.0297916
0.0245197
0.0203863
0.0170721
0.0143359
0.0119994
0.00995231
0.00813774
0.00659675
0.00534531
0.00436561
0.00359762
0.00301543
0.00261295
0.0023559
0.00228867
0.00237778
0.00259486
0.0625103
0.0667887
0.0667431
0.062472
0.0553855
0.0470134
0.0390429
0.032329
0.0270486
0.0229725
0.0197207
0.0170395
0.0147685
0.0127333
0.0108026
0.00894593
0.00723807
0.00576779
0.00459058
0.0037422
0.00322435
0.00298954
0.00297278
0.00305929
0.00326471
0.0604231
0.06465
0.0653553
0.0622359
0.0563047
0.0489266
0.0413161
0.0348082
0.0295837
0.0256102
0.0225416
0.0200579
0.0179715
0.0161287
0.0143675
0.0125778
0.0107486
0.00895262
0.00730771
0.00595359
0.00500041
0.00445634
0.004276
0.0043076
0.00452717
0.0580591
0.0620772
0.0633597
0.0613084
0.0565637
0.0502491
0.0434674
0.0371786
0.032113
0.0282039
0.0252764
0.0230432
0.0212601
0.0197467
0.0183415
0.0169234
0.0154091
0.0137784
0.012074
0.0104034
0.00891566
0.007757
0.0070203
0.00667209
0.00660665
0.055518
0.059177
0.0608449
0.0597399
0.0561693
0.0509758
0.0451289
0.0394603
0.0345355
0.0307603
0.0279269
0.02582
0.024274
0.023082
0.0220764
0.0211268
0.0201303
0.0190053
0.0177124
0.016271
0.0147523
0.0132658
0.0119272
0.0109447
0.0103076
0.0529199
0.0560844
0.0579293
0.0576003
0.0551242
0.051074
0.0462203
0.0413014
0.0368655
0.0332083
0.0304736
0.0284897
0.0270494
0.0260376
0.0252951
0.0246964
0.0241417
0.0235366
0.0227958
0.0218755
0.0207739
0.0195178
0.0181491
0.0168602
0.0157601
0.0503954
0.0529593
0.0547675
0.0549988
0.0534757
0.0505202
0.0466974
0.0426042
0.0387486
0.0354646
0.0328878
0.0309773
0.02966
0.0287586
0.028146
0.0277409
0.0274381
0.0271551
0.0267983
0.0263006
0.0256288
0.0247771
0.0237592
0.0226153
0.0214954
0.0480704
0.0499744
0.0515491
0.0520935
0.0513172
0.0493337
0.0465079
0.0432924
0.0401087
0.0372765
0.0349739
0.0332417
0.0320358
0.0312455
0.0307471
0.0304417
0.0302766
0.0301785
0.0300654
0.0298677
0.0295343
0.0290426
0.0283896
0.0275798
0.0266754
0.046047
0.0472938
0.0484841
0.0490926
0.0488081
0.0476012
0.0456636
0.0433006
0.0408352
0.0385418
0.0366067
0.0351152
0.0340657
0.0333923
0.0330032
0.0328134
0.0327529
0.0327737
0.0328369
0.032866
0.0328049
0.0326201
0.0322983
0.0318327
0.0312281
0.0443833
0.0450449
0.0457736
0.0462363
0.0461745
0.0454924
0.0442563
0.0426416
0.0408691
0.0391491
0.0376464
0.0364616
0.0356231
0.0350968
0.034819
0.0347231
0.0347804
0.0349444
0.0351502
0.0353534
0.0355154
0.0355931
0.0355612
0.0354202
0.0351543
0.0430788
0.043289
0.0435689
0.0437554
0.0436835
0.0432585
0.0424807
0.0414318
0.0402409
0.0390502
0.0379867
0.0371412
0.036552
0.0362073
0.0360555
0.0360667
0.0362256
0.0364999
0.0368464
0.0372195
0.0375729
0.037877
0.0381088
0.0382533
0.0382964
0.0420688
0.042002
0.0419305
0.0418141
0.0415852
0.0411916
0.0406208
0.0399052
0.0391113
0.0383236
0.0376259
0.0370858
0.0367382
0.0365807
0.0365681
0.0366854
0.0369276
0.0372788
0.0377145
0.0382045
0.0387153
0.0392147
0.0396725
0.0400676
0.0403856
0.0412311
0.0410727
0.0408049
0.0404581
0.0400381
0.0395441
0.0389834
0.0383791
0.0377694
0.0372022
0.0367272
0.0363867
0.0362061
0.0361857
0.0362887
0.0364879
0.0367863
0.037176
0.0376455
0.0381786
0.0387552
0.0393529
0.039949
0.040522
0.0410505
0.0404044
0.0403214
0.0400313
0.0395921
0.0390485
0.0384378
0.0377953
0.037156
0.0365556
0.0360289
0.0356084
0.0353202
0.0351807
0.0351918
0.0353339
0.0355605
0.0358603
0.0362341
0.0366745
0.0371733
0.0377205
0.0383039
0.0389095
0.0395227
0.040126
0.0394121
0.0395331
0.0393763
0.0390002
0.0384606
0.0378124
0.0371086
0.0363983
0.0357253
0.035127
0.0346333
0.0342664
0.0340393
0.0339561
0.0340099
0.0341771
0.0344239
0.0347196
0.0350677
0.0354656
0.0359062
0.0363825
0.0368874
0.037413
0.0379478
0.0380894
0.0384951
0.0385837
0.0384028
0.0380038
0.0374415
0.0367723
0.036051
0.0353278
0.034646
0.0340402
0.0335358
0.0331493
0.0328888
0.032755
0.0327408
0.0328304
0.0330016
0.0332288
0.0334855
0.0337731
0.0340892
0.0344326
0.0347977
0.0351773
0.0363049
0.0370274
0.037421
0.0375208
0.037367
0.0370052
0.0364854
0.0358591
0.035176
0.0344813
0.0338132
0.0332019
0.0326693
0.0322293
0.0318893
0.0316508
0.0315101
0.0314589
0.0314837
0.0315684
0.0317019
0.0318697
0.0320501
0.0322437
0.0324478
0.0339814
0.0350083
0.0357161
0.0361276
0.0362714
0.0361818
0.0358985
0.0354645
0.0349235
0.0343174
0.0336839
0.0330549
0.0324559
0.0319058
0.0314176
0.0309989
0.0306535
0.0303809
0.0301777
0.0300381
0.0299551
0.0299194
0.0299188
0.0299466
0.0299967
0.0311286
0.0324071
0.0333915
0.0340942
0.0345334
0.0347327
0.0347213
0.0345325
0.0342021
0.0337656
0.0332568
0.0327059
0.0321388
0.0315765
0.0310355
0.0305275
0.0300606
0.02964
0.0292677
0.028944
0.0286672
0.028434
0.0282401
0.028081
0.0279528
0.027895
0.0293313
0.0305104
0.0314346
0.0321142
0.0325639
0.0328033
0.0328568
0.0327517
0.0325168
0.0321802
0.0317684
0.0313053
0.0308114
0.0303038
0.0297964
0.0292997
0.0288217
0.0283678
0.0279418
0.0275454
0.0271794
0.0268434
0.0265366
0.0262583
0.0246084
0.0260503
0.027292
0.0283254
0.0291395
0.0297438
0.0301536
0.0303859
0.030461
0.0304008
0.0302274
0.0299625
0.0296263
0.0292371
0.0288108
0.0283612
0.0278993
0.0274343
0.0269731
0.0265212
0.0260825
0.0256595
0.0252542
0.0248675
0.0245015
0.0215436
0.0228268
0.0239592
0.0249342
0.0257446
0.0263792
0.0268359
0.0271335
0.0272889
0.0273195
0.0272427
0.0270755
0.0268341
0.0265334
0.0261868
0.0258063
0.025402
0.0249824
0.0245546
0.0241242
0.0236957
0.0232727
0.0228575
0.0224524
0.0220602
0.0182859
0.0192296
0.0200526
0.0207519
0.0213146
0.0217516
0.022066
0.0222679
0.0223679
0.0223773
0.0223074
0.0221695
0.0219742
0.0217315
0.0214505
0.0211395
0.0208058
0.0204555
0.0200941
0.019726
0.019355
0.018984
0.0186155
0.0182514
0.0178944
0.00926453
0.00965862
0.0100059
0.0103101
0.0105612
0.0107642
0.0109222
0.0110379
0.0111144
0.0111549
0.0111627
0.0111411
0.0110938
0.0110239
0.0109348
0.0108294
0.0107105
0.0105806
0.0104421
0.0102971
0.0101473
0.0099943
0.00983953
0.00968411
0.00952908
0.000457572
0.000488567
0.00174621
0.00216308
0.00246031
0.00247313
0.00287778
0.00295245
0.0032695
0.00355246
0.00387701
0.00440679
0.00484356
0.00520716
0.00565963
0.00673579
0.00694763
0.00721135
0.00995953
0.00980912
0.00977042
0.0149147
0.0143171
0.013882
0.0205053
0.0196879
0.0189923
0.025797
0.0249923
0.0242311
0.0305706
0.0299086
0.0292173
0.0347878
0.0343555
0.0338537
0.0382353
0.0380902
0.0378559
0.0406021
0.0407339
0.0407852
0.0414844
0.041855
0.0421722
0.0406587
0.0411599
0.0416342
0.0384362
0.0389177
0.0393979
0.0355303
0.0358876
0.0362538
0.0326403
0.0328387
0.0330465
0.0300579
0.0301308
0.0302141
0.0278603
0.0277868
0.0277285
0.0260308
0.0258237
0.0256323
0.0241907
0.0238967
0.023615
0.0217213
0.0213942
0.0210753
0.0175839
0.0172807
0.0169829
0.00939373
0.00926018
0.0091285
0.000109161
0.000214424
0.000353705
0.000476337
0.000587761
0.000688654
0.000782151
0.000869797
0.000952668
0.00103149
0.00110678
0.00117893
0.00124827
0.00131508
0.0013796
0.00144207
0.0015027
0.0015617
0.00161927
0.00167562
0.00173095
0.00178544
0.00183931
0.00189276
0.00194598
0.00199919
0.00205261
0.00210646
0.00216097
0.0022164
0.002273
0.00233107
0.00239092
0.0024529
0.00251743
0.00258497
0.00265606
0.00273136
0.00281168
0.00289801
0.00299104
0.00308842
0.00319027
0.00329671
0.00340792
0.0035242
0.00364581
0.00377298
0.00390587
0.00404462
0.00418927
0.00433979
0.00449599
0.00465749
0.00482367
0.00499351
0.00516552
0.00533752
0.00550635
0.00566762
0.00581522
0.00594074
0.00603307
0.00608127
0.0060792
0.0060215
0.00590158
0.00571685
0.00549629
0.00519875
0.00482554
0.00437633
0.00387659
0.00335135
0.00284795
0.00240419
0.00199363
0.0015982
0.00119378
0.000713233
0.000352535
0.000686691
0.000884136
0.00106202
0.0012539
0.00145724
0.00166207
0.00186711
0.00207055
0.00227085
0.00246675
0.00265733
0.00284204
0.00302061
0.003193
0.00335934
0.00351985
0.00367484
0.00382466
0.00396969
0.00411036
0.00424709
0.00438035
0.00451059
0.00463829
0.00476396
0.00488808
0.00501117
0.00513376
0.00525637
0.00537956
0.00550387
0.00562987
0.00575816
0.00588932
0.00602396
0.0061627
0.0063062
0.00645497
0.0066097
0.00677173
0.00694396
0.00712464
0.00731388
0.00751219
0.00772012
0.00793827
0.00816719
0.00840736
0.00865921
0.00892301
0.00919887
0.00948662
0.0097857
0.0100951
0.0104129
0.0107366
0.0110618
0.0113828
0.0116912
0.011975
0.0122183
0.0124019
0.0125026
0.0125148
0.0124209
0.0121919
0.0118119
0.0112534
0.0105115
0.00963737
0.00865764
0.00763185
0.00660431
0.00555708
0.00451841
0.00354887
0.00270992
0.00201428
0.00105242
0.000540797
0.0010474
0.00129118
0.00153781
0.00182367
0.00213233
0.00244825
0.00276359
0.00307259
0.00337173
0.00365914
0.00393414
0.00419679
0.00444755
0.0046871
0.00491616
0.00513541
0.00534554
0.00554715
0.00574083
0.00592712
0.00610655
0.00627966
0.00644695
0.00660896
0.00676622
0.00691927
0.00706869
0.00721505
0.00735896
0.00750105
0.00764196
0.00778236
0.00792296
0.00806447
0.00820765
0.00835327
0.00850211
0.00865497
0.00881261
0.00897584
0.00914668
0.00932685
0.00951563
0.0097134
0.0099208
0.0101385
0.0103673
0.0106077
0.0108604
0.0111255
0.0114033
0.0116934
0.011995
0.0123069
0.0126266
0.0129508
0.0132746
0.0135913
0.013892
0.0141652
0.0143956
0.0145652
0.0146468
0.0146221
0.0144761
0.0141876
0.0137345
0.0130954
0.0122615
0.0112049
0.0100174
0.00876282
0.00751811
0.00633192
0.00519885
0.00413012
0.00314694
0.00228007
0.00114352
0.000671146
0.00133336
0.00164597
0.00196945
0.00234138
0.00273825
0.00314017
0.00353471
0.00391498
0.00427783
0.00462257
0.00494986
0.00526096
0.00555732
0.00584026
0.00611093
0.00637028
0.00661904
0.00685783
0.00708717
0.0073075
0.00751922
0.00772274
0.00791844
0.00810673
0.00828803
0.00846279
0.00863149
0.00879463
0.00895276
0.00910646
0.00925633
0.00940305
0.00954729
0.00968979
0.00983133
0.0099727
0.0101148
0.0102584
0.0104045
0.0105539
0.0107076
0.0108688
0.0110374
0.0112135
0.0113978
0.0115907
0.0117931
0.0120056
0.0122286
0.0124622
0.0127066
0.0129612
0.0132249
0.013496
0.013772
0.014049
0.0143219
0.0145842
0.0148274
0.0150412
0.0152131
0.0153278
0.0153661
0.0153002
0.0151197
0.0148077
0.0143455
0.0137164
0.0129079
0.0119111
0.0107175
0.00934753
0.00794498
0.00662615
0.0054213
0.0043283
0.00330187
0.00233352
0.00112586
0.000769761
0.00155592
0.00195717
0.00236103
0.00280864
0.00327473
0.0037371
0.00418336
0.00460793
0.00500967
0.00538979
0.0057505
0.00609416
0.00642285
0.00673826
0.00704162
0.00733382
0.00761543
0.00788686
0.00814838
0.00840016
0.00864237
0.00887518
0.00909874
0.00931327
0.009519
0.00971622
0.00990525
0.0100865
0.0102603
0.0104272
0.0105876
0.0107423
0.0108917
0.0110366
0.0111777
0.0113159
0.0114519
0.0115867
0.0117213
0.0118565
0.0119936
0.0121336
0.0122797
0.0124317
0.0125899
0.0127548
0.0129271
0.0131075
0.0132963
0.0134937
0.0136995
0.0139132
0.0141335
0.0143585
0.0145856
0.0148108
0.0150292
0.0152342
0.015418
0.0155709
0.0156816
0.0157369
0.0157217
0.0156213
0.0154226
0.0151125
0.0146747
0.0141019
0.0133791
0.0124744
0.0113619
0.0100454
0.00858549
0.00709464
0.00567666
0.00447962
0.00338168
0.00231608
0.0010583
0.000844235
0.00173901
0.00223498
0.00271516
0.00322522
0.00374102
0.00424202
0.0047184
0.00516769
0.00559141
0.00599276
0.00637526
0.00674201
0.00709544
0.00743727
0.00776858
0.00808999
0.00840178
0.00870398
0.00899653
0.00927926
0.00955203
0.00981472
0.0100672
0.0103095
0.0105416
0.0107636
0.0109756
0.0111778
0.0113706
0.0115543
0.0117291
0.0118957
0.0120546
0.0122063
0.0123515
0.0124911
0.0126258
0.0127565
0.0128842
0.01301
0.013135
0.0132602
0.0133882
0.0135206
0.0136575
0.0137995
0.0139473
0.0141016
0.0142629
0.0144314
0.0146071
0.0147895
0.0149774
0.015169
0.0153617
0.0155516
0.0157338
0.015902
0.0160484
0.0161636
0.0162365
0.0162545
0.0162042
0.0160729
0.0158514
0.015533
0.0151137
0.0145907
0.0139537
0.0131737
0.0122038
0.0109953
0.00953387
0.00789506
0.00624883
0.00481344
0.00353366
0.00230698
0.000967938
0.000905001
0.00189822
0.00248547
0.00303275
0.00359032
0.00413792
0.00465954
0.00514977
0.00560983
0.00604394
0.00645703
0.0068536
0.00723719
0.00761031
0.00797448
0.00833051
0.00867862
0.00901867
0.0093503
0.00967303
0.00998634
0.0102897
0.0105828
0.0108651
0.0111365
0.0113966
0.0116454
0.0118828
0.0121089
0.0123238
0.0125276
0.0127208
0.0129035
0.0130762
0.0132395
0.0133939
0.0135402
0.0136791
0.0138115
0.0139386
0.0140613
0.0141809
0.0142985
0.0144156
0.0145356
0.0146588
0.0147859
0.0149179
0.0150556
0.0151999
0.0153511
0.0155097
0.0156753
0.0158471
0.0160237
0.0162025
0.0163802
0.0165519
0.0167113
0.0168506
0.0169601
0.0170285
0.0170429
0.0169893
0.0168542
0.016627
0.0163018
0.0158785
0.0153637
0.0147637
0.0140693
0.0132411
0.0121976
0.0108338
0.00911828
0.00719755
0.00535893
0.00378812
0.00234647
0.000902792
0.000960048
0.00204391
0.00271377
0.00331617
0.00390616
0.00446978
0.00499755
0.00548926
0.00594989
0.00638606
0.00680411
0.0072092
0.00760505
0.007994
0.00837729
0.0087553
0.00912781
0.00949422
0.00985374
0.0102055
0.0105485
0.0108821
0.0112053
0.0115177
0.0118186
0.0121076
0.0123844
0.0126489
0.0129008
0.0131401
0.013367
0.0135814
0.0137837
0.0139742
0.0141532
0.0143213
0.0144791
0.0146274
0.0147672
0.0148993
0.015025
0.0151455
0.0152623
0.0153766
0.0154911
0.015608
0.0157282
0.0158529
0.0159831
0.0161201
0.0162648
0.0164179
0.0165796
0.0167497
0.0169271
0.01711
0.0172953
0.0174787
0.0176541
0.0178138
0.0179479
0.0180446
0.0180899
0.018068
0.0179628
0.0177592
0.0174454
0.0170187
0.0164852
0.0158632
0.0151719
0.0144079
0.0135112
0.0123364
0.0107047
0.00857051
0.0061942
0.00417256
0.0024331
0.000859204
0.00101515
0.00218521
0.00292663
0.00357075
0.00417846
0.00474425
0.00526628
0.00574976
0.00620315
0.00663513
0.00705305
0.00746242
0.00786687
0.00826847
0.008668
0.00906538
0.00945991
0.00985052
0.010236
0.010615
0.0109863
0.0113487
0.0117013
0.012043
0.0123731
0.012691
0.0129963
0.0132884
0.0135672
0.0138324
0.014084
0.0143219
0.0145463
0.0147574
0.0149555
0.0151409
0.0153143
0.0154764
0.015628
0.0157701
0.0159041
0.0160311
0.0161528
0.0162706
0.0163862
0.0165034
0.0166233
0.0167475
0.0168774
0.0170146
0.0171606
0.0173166
0.0174833
0.0176613
0.0178501
0.0180486
0.0182544
0.0184639
0.0186717
0.0188707
0.0190511
0.0192011
0.0193059
0.0193485
0.0193097
0.0191697
0.0189062
0.0185087
0.0179719
0.0173076
0.0165485
0.0157331
0.0148658
0.0138536
0.0124632
0.0103935
0.00767008
0.00489824
0.00265736
0.000843788
0.00107572
0.00233258
0.00313374
0.00380523
0.00441618
0.00497158
0.00547771
0.00594501
0.006385
0.00680794
0.00722177
0.00763202
0.00804203
0.0084534
0.00886644
0.00928051
0.00969445
0.0101067
0.0105157
0.0109197
0.0113171
0.0117066
0.0120867
0.0124563
0.0128145
0.0131605
0.0134935
0.0138132
0.0141189
0.0144105
0.0146877
0.0149504
0.0151986
0.0154324
0.0156519
0.0158574
0.0160495
0.0162288
0.016396
0.0165522
0.0166987
0.0168368
0.0169681
0.0170943
0.017217
0.0173397
0.0174646
0.0175935
0.0177282
0.0178709
0.0180234
0.0181874
0.0183644
0.0185555
0.0187611
0.0189808
0.0192132
0.0194557
0.0197038
0.0199512
0.0201893
0.0204069
0.0205895
0.0207197
0.0207766
0.0207365
0.0205738
0.020264
0.0197871
0.0191272
0.0183065
0.0173698
0.0163711
0.015333
0.0141274
0.012393
0.00973866
0.00621251
0.00320492
0.000887323
0.0011509
0.00250142
0.00334858
0.00403209
0.00463171
0.0051647
0.00564577
0.00609012
0.0065117
0.00692172
0.00732827
0.00773655
0.00814938
0.00856781
0.00899154
0.00941944
0.00984985
0.0102808
0.0107104
0.0111365
0.0115574
0.0119712
0.0123765
0.012772
0.0131564
0.0135288
0.0138885
0.0142346
0.0145668
0.0148845
0.0151874
0.0154753
0.0157481
0.0160058
0.0162483
0.016476
0.0166891
0.0168882
0.017074
0.0172476
0.0174102
0.0175631
0.0177081
0.0178469
0.0179814
0.0181138
0.0182477
0.0183853
0.0185288
0.0186805
0.0188427
0.0190177
0.0192076
0.0194139
0.019638
0.0198804
0.0201406
0.020417
0.0207065
0.0210041
0.0213025
0.0215919
0.0218593
0.0220884
0.0222589
0.0223465
0.0223228
0.0221561
0.0218134
0.021264
0.0204871
0.0194806
0.0182998
0.0170288
0.0157084
0.0142041
0.012027
0.00861988
0.00436946
0.00105179
0.00125121
0.0027127
0.00358808
0.0042688
0.00484161
0.00534018
0.0057873
0.00620258
0.00660144
0.00699528
0.00739177
0.00779544
0.00820842
0.00863104
0.00906243
0.00950094
0.00994449
0.0103908
0.0108375
0.0112824
0.0117234
0.0121585
0.0125861
0.0130047
0.0134129
0.0138096
0.0141939
0.0145651
0.0149223
0.0152653
0.0155933
0.0159063
0.0162038
0.0164859
0.0167523
0.0170034
0.0172392
0.0174602
0.017667
0.0178605
0.018042
0.0182129
0.0183749
0.0185297
0.0186791
0.0188254
0.0189722
0.0191219
0.0192771
0.0194403
0.0196144
0.019802
0.0200056
0.0202276
0.0204698
0.0207337
0.0210198
0.0213276
0.0216553
0.0219993
0.0223543
0.0227121
0.0230619
0.0233897
0.0236773
0.0239028
0.024039
0.024054
0.0239095
0.0235616
0.0229637
0.0220737
0.0208716
0.0193779
0.0177022
0.0159273
0.0139616
0.0111228
0.00635713
0.00136808
0.00140339
0.00298203
0.00386354
0.00452881
0.00506632
0.00551838
0.00592279
0.00630319
0.00667536
0.00704998
0.00743368
0.00783
0.00824014
0.00866373
0.00909929
0.00954471
0.00999755
0.0104552
0.0109152
0.011375
0.0118324
0.0122853
0.0127318
0.0131703
0.0135994
0.0140178
0.0144245
0.0148186
0.0151993
0.015566
0.0159181
0.0162553
0.0165771
0.0168834
0.017174
0.017449
0.0177084
0.0179526
0.0181822
0.0183978
0.0186007
0.0187922
0.018974
0.0191477
0.0193153
0.0194787
0.0196413
0.019806
0.0199753
0.0201523
0.0203398
0.0205409
0.0207585
0.0209954
0.0212542
0.0215371
0.0218454
0.0221799
0.0225401
0.0229239
0.0233276
0.0237453
0.0241686
0.0245861
0.024983
0.0253409
0.0256365
0.0258417
0.0259214
0.0258324
0.0255215
0.0249238
0.0239672
0.0225839
0.0207493
0.0185212
0.016066
0.0133658
0.0097476
0.00206124
0.00161939
0.00340334
0.00422132
0.0048316
0.00531914
0.00572159
0.00607551
0.00641623
0.0067581
0.00711044
0.00747835
0.00786406
0.00826783
0.00868852
0.00912413
0.00957217
0.0100299
0.0104945
0.0109634
0.0114338
0.0119035
0.0123701
0.0128319
0.0132869
0.0137337
0.0141708
0.0145972
0.0150119
0.0154139
0.0158026
0.0161772
0.0165373
0.0168823
0.0172121
0.0175263
0.0178251
0.0181084
0.0183765
0.0186299
0.0188693
0.0190956
0.0193099
0.0195139
0.0197092
0.0198976
0.0200811
0.0202621
0.0204441
0.0206299
0.0208223
0.0210245
0.0212397
0.0214712
0.0217221
0.0219955
0.0222943
0.0226206
0.0229761
0.0233616
0.0237765
0.0242189
0.0246849
0.0251686
0.0256613
0.0261518
0.0266255
0.0270641
0.0274454
0.0277414
0.0279177
0.02793
0.0277203
0.027211
0.026298
0.0248531
0.0227408
0.0199462
0.0165625
0.0128134
0.00834287
0.00218127
0.00390089
0.0046487
0.00518309
0.00560509
0.00595615
0.00626702
0.00656649
0.00687642
0.00720406
0.00755306
0.00792444
0.0083176
0.0087308
0.00916165
0.00960737
0.010065
0.0105318
0.0110047
0.0114811
0.0119586
0.0124348
0.0129078
0.0133757
0.0138367
0.0142894
0.0147326
0.0151651
0.015586
0.0159944
0.0163895
0.0167707
0.0171374
0.0174892
0.017826
0.0181475
0.0184541
0.018746
0.019024
0.0192882
0.0195394
0.0197784
0.0200067
0.0202256
0.0204369
0.0206425
0.0208444
0.0210461
0.0212502
0.0214597
0.0216778
0.0219077
0.0221529
0.0224168
0.0227028
0.0230142
0.0233539
0.0237245
0.0241277
0.0245644
0.0250342
0.0255352
0.0260637
0.0266138
0.0271772
0.0277434
0.0282987
0.0288266
0.029307
0.0297155
0.0300218
0.0301871
0.0301603
0.0298702
0.0292143