/*--------------------------------*- C++ -*----------------------------------*\
| =========                 |                                                 |
| \\      /  F ield         | OpenFOAM: The Open Source CFD Toolbox           |
|  \\    /   O peration     | Version:  v2012                                 |
|   \\  /    A nd           | Website:  www.openfoam.com                      |
|    \\/     M anipulation  |                                                 |
\*---------------------------------------------------------------------------*/
FoamFile
{
    version     2.0;
    format      ascii;
    class       volScalarField;
    location    "466";
    object      nut;
}
// * * * * * * * * * * * * * * * * * * * * * * * * * * * * * * * * * * * * * //

dimensions      [0 2 -1 0 0 0 0];


internalField   nonuniform List<scalar> 
6556
(
0.0025235
0.00885817
0.0104943
0.0107556
0.0107195
0.0107195
0.0107556
0.0104943
0.00885817
0.0025235
0.00194008
0.00735596
0.00970274
0.0103113
0.0103879
0.0103879
0.0103113
0.00970274
0.00735596
0.00194008
0.00157647
0.00638044
0.00897453
0.00985615
0.01006
0.01006
0.00985616
0.00897453
0.00638045
0.00157647
0.00133273
0.00568621
0.00833823
0.0094094
0.00972741
0.00972741
0.0094094
0.00833824
0.00568622
0.00133273
0.00115952
0.00516149
0.00778985
0.00898281
0.00939179
0.0093918
0.00898282
0.00778986
0.00516151
0.00115952
0.00103052
0.00474724
0.0073166
0.00858185
0.00905787
0.00905788
0.00858187
0.00731663
0.00474727
0.00103052
0.000930754
0.00440916
0.0069051
0.00820808
0.00873036
0.00873037
0.00820811
0.00690514
0.0044092
0.000930756
0.000851194
0.00412594
0.00654379
0.0078609
0.0084129
0.00841292
0.00786095
0.00654385
0.00412601
0.000851197
0.000786139
0.00388371
0.00622334
0.00753873
0.00810793
0.00810795
0.0075388
0.00622345
0.00388381
0.000786144
0.000731832
0.00367302
0.00593645
0.00723961
0.00781683
0.00781687
0.00723972
0.00593661
0.00367316
0.00073184
0.000685711
0.00348722
0.00567742
0.00696154
0.00754021
0.00754028
0.0069617
0.00567765
0.00348744
0.000685721
0.000645969
0.00332152
0.00544179
0.00670259
0.00727814
0.00727824
0.00670283
0.00544213
0.00332184
0.000645984
0.0006113
0.00317233
0.00522606
0.00646099
0.0070303
0.00703045
0.00646135
0.00522656
0.0031728
0.000611322
0.000580739
0.00303693
0.00502744
0.00623515
0.00679614
0.00679636
0.00623568
0.00502819
0.00303763
0.00058077
0.000553552
0.00291322
0.0048437
0.00602362
0.00657498
0.0065753
0.00602441
0.00484479
0.00291424
0.000553596
0.000529176
0.00279951
0.00467297
0.00582511
0.00636607
0.00636653
0.0058263
0.00467458
0.00280098
0.000529239
0.00050717
0.00269444
0.00451374
0.00563846
0.00616863
0.00616929
0.00564024
0.00451608
0.00269655
0.000507258
0.00048718
0.00259689
0.00436469
0.00546262
0.00598189
0.00598282
0.00546518
0.00436813
0.0025998
0.000487303
0.000468924
0.00250589
0.0042247
0.0052966
0.00580509
0.00580639
0.00530027
0.00422979
0.00250987
0.000469092
0.000452168
0.00242062
0.00409276
0.00513952
0.00563748
0.00563933
0.00514475
0.00410002
0.00242479
0.00045238
0.000436719
0.00234035
0.00396797
0.00499055
0.00547836
0.00548103
0.00499839
0.00398129
0.00236767
0.000494544
0.000422415
0.00226444
0.00384953
0.0048489
0.00532707
0.00533095
0.00486088
0.00387317
0.00232177
0.000551876
0.000409117
0.00219233
0.00373671
0.00471389
0.00518298
0.00518854
0.00473174
0.00377478
0.00229103
0.000624286
0.000396709
0.00212356
0.00362889
0.00458485
0.00504548
0.00505313
0.00460995
0.00368371
0.00228833
0.00071806
0.000385089
0.00205767
0.00352547
0.0044612
0.00491397
0.00492379
0.00449339
0.00360552
0.00230873
0.00083928
0.000374168
0.0019943
0.00342592
0.00434237
0.00478793
0.00480043
0.00438196
0.00354174
0.00234149
0.000989191
0.000363869
0.00193305
0.00332972
0.00422784
0.00466695
0.00468314
0.00428049
0.0034856
0.00237717
0.00116485
0.000354123
0.0018736
0.0032364
0.00411711
0.00455065
0.00457181
0.00418799
0.00343819
0.00241539
0.00136031
0.000344868
0.00181561
0.00314547
0.00400971
0.00443866
0.00446624
0.00410368
0.00339902
0.0024593
0.00156574
0.000336049
0.00175877
0.00305649
0.00390517
0.0043306
0.00436612
0.0040269
0.00336778
0.00251038
0.00176456
0.000327613
0.00170274
0.00296898
0.00380303
0.0042261
0.00427112
0.0039571
0.00334424
0.00256876
0.00195424
0.000319514
0.00164727
0.00288249
0.00370282
0.00412475
0.00418087
0.00389379
0.00332809
0.00263351
0.00213281
0.000311706
0.0015921
0.00279656
0.00360404
0.0040261
0.00409493
0.00383644
0.00331872
0.00270173
0.00229854
0.000304148
0.00153693
0.00271073
0.0035062
0.00392969
0.00401283
0.00378447
0.0033153
0.00277151
0.00245015
0.000296799
0.00148149
0.00262451
0.00340874
0.00383498
0.00393404
0.00373723
0.00331682
0.00284112
0.0025868
0.000289619
0.00142553
0.00253741
0.00331106
0.00374136
0.00385792
0.00369395
0.0033221
0.00290884
0.00270791
0.00028257
0.00136885
0.00244893
0.00321254
0.00364816
0.00378375
0.00365375
0.00332994
0.00297315
0.00281337
0.000275612
0.00131128
0.0023586
0.00311251
0.00355463
0.00371071
0.00361563
0.00333906
0.00303285
0.00290343
0.000268708
0.00125275
0.00226597
0.00301025
0.00345994
0.00363784
0.00357849
0.00334821
0.0030871
0.00297889
0.000261818
0.00119322
0.00217067
0.00290506
0.00336314
0.00356407
0.00354108
0.00335609
0.00313545
0.00304118
0.000254905
0.00113275
0.00207242
0.00279621
0.00326323
0.00348816
0.00350202
0.00336143
0.00317773
0.00309231
0.000247928
0.00107149
0.00197104
0.002683
0.00315907
0.0034087
0.00345976
0.00336286
0.00321392
0.00313465
0.000240849
0.00100962
0.00186648
0.00256477
0.00304943
0.00332406
0.00341249
0.00335885
0.0032439
0.00317062
0.000233623
0.000947374
0.0017588
0.00244088
0.00293298
0.00323236
0.00335808
0.0033475
0.00326705
0.0032021
0.000226204
0.000884999
0.00164816
0.0023108
0.00280829
0.00313147
0.003294
0.00332637
0.00328193
0.00322978
0.000218541
0.000822769
0.00153483
0.00217405
0.0026739
0.00301899
0.00321723
0.00329231
0.00328592
0.00325254
0.000210575
0.000760936
0.00141915
0.00203033
0.00252833
0.0028923
0.0031243
0.00324138
0.00327501
0.00326693
0.000202234
0.000699707
0.00130153
0.00187948
0.00237028
0.00274878
0.00301142
0.0031689
0.00324385
0.00326711
0.000193428
0.000639224
0.00118242
0.00172163
0.00219879
0.00258603
0.00287478
0.0030698
0.00318606
0.00324528
0.000184035
0.000579557
0.00106235
0.00155729
0.00201356
0.00240237
0.0027111
0.0029392
0.00309495
0.00319249
0.000173877
0.000520606
0.00094199
0.00138761
0.00181541
0.00219751
0.00251855
0.00277338
0.00296458
0.00310003
0.000162679
0.000462291
0.000822401
0.00121485
0.00160699
0.00197358
0.00229786
0.00257114
0.00279133
0.00296112
0.000126742
0.000406477
0.000706072
0.00104311
0.00139374
0.00173624
0.00205379
0.00233543
0.00257555
0.0027722
9.78051e-05
0.000359541
0.000601128
0.000881195
0.00118529
0.00149555
0.001796
0.00207438
0.00232172
0.00253315
0.000116212
0.000316817
0.000520505
0.000745322
0.000998368
0.001268
0.00154003
0.00180056
0.00204057
0.00225475
9.21848e-05
0.000304151
0.000471289
0.000650627
0.000853682
0.0010762
0.00130665
0.00153551
0.00175475
0.00195831
7.03551e-05
0.00029472
0.000444588
0.000597925
0.000761183
0.000936148
0.00112078
0.00130965
0.00149644
0.00165789
6.29858e-05
0.000276092
0.000440251
0.000573682
0.000677897
0.000775197
0.000884132
0.0010047
0.00113264
0.00125986
6.46655e-05
0.00020882
0.000412097
0.00053401
0.000645051
0.000676181
0.000713403
0.00077897
0.000869956
0.000963658
6.77559e-05
0.000111636
0.000136212
0.000166155
0.000192812
0.000216572
0.000231964
0.000244527
0.000255025
0.000263512
0.000123521
0.000157295
0.000160938
0.00016599
0.000170015
0.000172414
0.000173099
0.000171947
0.000168581
0.00016453
0.000159725
0.00015412
0.000147839
0.000141124
0.000134101
0.000126847
0.000119261
0.000112279
0.000105508
9.86896e-05
9.1595e-05
8.39284e-05
7.52031e-05
6.44312e-05
4.12591e-05
0.000224463
0.000542848
0.000786582
0.000919589
0.000994021
0.00103894
0.00106204
0.00106568
0.0010487
0.00101831
0.000980244
0.000934266
0.000881832
0.000825584
0.000767232
0.000707329
0.000643311
0.000555264
0.000461546
0.000372708
0.000294847
0.000230813
0.000181997
0.000143403
4.95305e-05
0.000355239
0.000644673
0.00100998
0.00129482
0.0014616
0.00155823
0.00160969
0.00162753
0.0014995
0.00144459
0.00148417
0.00146846
0.00139866
0.00132335
0.00124405
0.00116025
0.00106735
0.000947416
0.000805939
0.000655209
0.000509736
0.000382525
0.000281691
0.000200205
5.33578e-05
0.000606706
0.000669889
0.00102835
0.00135527
0.00158878
0.00171812
0.00178371
0.00180691
0.00169964
0.00162177
0.00163247
0.00164525
0.00157792
0.00150903
0.001439
0.00136492
0.0012798
0.00116787
0.00102572
0.000858938
0.000681155
0.000511397
0.000366159
0.000240435
5.60978e-05
0.000940641
0.000832822
0.00115475
0.00137339
0.00160358
0.00175209
0.00182035
0.00183926
0.00182296
0.00178028
0.0017197
0.00165084
0.00158311
0.00152197
0.00146697
0.00141237
0.001348
0.00125812
0.00113433
0.000976393
0.000793556
0.000604545
0.000429715
0.000266598
5.6288e-05
0.00120636
0.00114543
0.00133773
0.00146951
0.00162558
0.00175616
0.00182192
0.00183294
0.00180533
0.00175035
0.00167724
0.00159629
0.00152105
0.00146136
0.00141763
0.00138159
0.00133892
0.00127225
0.00117016
0.00102906
0.000854447
0.00066197
0.000471166
0.000280666
5.55844e-05
0.00141462
0.00153751
0.00155664
0.0016149
0.00171319
0.00178822
0.00182655
0.00182633
0.00178651
0.00171773
0.00162992
0.00153417
0.00144542
0.0013787
0.0013392
0.0013175
0.00129365
0.00124661
0.00116312
0.00103882
0.000876979
0.000689612
0.000492799
0.000285074
5.43544e-05
0.00161118
0.00177484
0.00178841
0.00180233
0.00184717
0.00188015
0.00187946
0.00184515
0.00178253
0.00169819
0.00159473
0.00148224
0.00137735
0.00129736
0.00125289
0.00123888
0.00123014
0.00119869
0.00112968
0.00102009
0.000872076
0.000694205
0.000498161
0.000282082
5.27408e-05
0.00179975
0.00198978
0.00202418
0.00202003
0.00201589
0.00200857
0.00197508
0.00191139
0.00181996
0.00170732
0.00158029
0.00144769
0.00132353
0.00122578
0.00116768
0.00115118
0.00114923
0.00112968
0.00107368
0.000978699
0.000845943
0.000680777
0.000490371
0.000272861
5.08922e-05
0.0019807
0.00219206
0.00225385
0.0022435
0.00220731
0.00216562
0.00210204
0.00201102
0.0018924
0.00175184
0.00159507
0.00143534
0.00128728
0.00116759
0.00108838
0.00105761
0.00105559
0.00104345
0.000997968
0.000916924
0.000800142
0.000649688
0.000468391
0.000255472
4.91844e-05
0.00215409
0.00238326
0.00247306
0.00246778
0.00241284
0.00234317
0.00225335
0.00213885
0.00199603
0.00182719
0.00163855
0.00144697
0.00127001
0.00112411
0.00101985
0.000963454
0.000950879
0.000942734
0.000907281
0.000839515
0.000738637
0.000603946
0.000435083
0.000233634
4.74872e-05
0.00231992
0.0025627
0.0026793
0.00268905
0.00262946
0.00253463
0.00242317
0.00229032
0.00212818
0.00193265
0.00171304
0.00148602
0.00127519
0.00109994
0.000968128
0.000880115
0.000841695
0.000830576
0.000805532
0.000750169
0.000664811
0.000547022
0.000394577
0.000210988
4.57336e-05
0.00247653
0.00272844
0.00287006
0.00289883
0.00284091
0.00273139
0.00260555
0.00246077
0.00228602
0.00207185
0.00182282
0.00156013
0.00131166
0.0011037
0.000942899
0.000806232
0.000746756
0.000716353
0.000698103
0.000653432
0.000583039
0.000483815
0.000352527
0.000192073
4.39354e-05
0.00262159
0.00287904
0.00304268
0.00309055
0.00303998
0.00292778
0.00279535
0.002646
0.00246682
0.00224281
0.001974
0.00168042
0.00139223
0.0011461
0.000953336
0.000748694
0.000655246
0.00061936
0.000587951
0.000555419
0.000499401
0.000413083
0.000302009
0.000180873
4.22937e-05
0.00275261
0.0030119
0.00319365
0.00326135
0.00322596
0.0031236
0.00298788
0.00284124
0.00266746
0.00244552
0.00216957
0.00185545
0.0015338
0.00124474
0.00101084
0.000829145
0.000584354
0.000502078
0.000503915
0.000468469
0.000423817
0.000352872
0.000235297
0.000144398
5.73033e-05
0.00286717
0.00310892
0.00331985
0.0034079
0.00339195
0.00330188
0.00317552
0.00304046
0.00288269
0.00267652
0.00241069
0.00209433
0.00175219
0.00142624
0.00114195
0.000911856
0.000725023
0.000479511
0.000379732
0.000342436
0.000333457
0.000282192
0.000234525
0.000184256
0.000117927
0.00296408
0.00321522
0.00341774
0.00352781
0.00353369
0.00346279
0.00335813
0.00323851
0.00310607
0.00283328
0.00260407
0.00239705
0.00206098
0.00171707
0.0013904
0.00110069
0.000859812
0.000670582
0.000496292
0.000367576
0.000307039
0.000280324
0.000270094
0.000247223
0.000193871
0.00304234
0.00328329
0.00349392
0.00361878
0.00364843
0.00360156
0.00351948
0.00342761
0.00332751
0.00306319
0.00277585
0.00256684
0.00241229
0.00212769
0.00179264
0.00146343
0.00115796
0.000893536
0.000682245
0.00052972
0.000432992
0.000380768
0.000360358
0.000353518
0.000361118
0.0031022
0.0033282
0.00353977
0.00367884
0.00373348
0.00371469
0.00365723
0.00359631
0.00353359
0.00345584
0.00317784
0.00292329
0.00271539
0.00252986
0.00232913
0.00201065
0.00168784
0.00137657
0.00109591
0.000865994
0.000701141
0.000601333
0.000556939
0.000545301
0.000562183
0.00314509
0.00335113
0.00355844
0.00370868
0.00378588
0.00379661
0.00376604
0.00373156
0.00370692
0.00367852
0.0036309
0.00348695
0.00326874
0.00305577
0.00282815
0.00257607
0.00230481
0.00201845
0.00172914
0.00145015
0.0012
0.000974099
0.000797258
0.000688932
0.000627104
0.00317364
0.00335474
0.00355183
0.00370855
0.00380416
0.00384318
0.00384261
0.00383032
0.00383306
0.00384776
0.00385916
0.0038482
0.00379185
0.00368517
0.00353941
0.00332026
0.00303405
0.00270422
0.00235649
0.00202493
0.00173036
0.0014763
0.00126777
0.00112635
0.00105993
0.00319159
0.00334324
0.00352365
0.00368079
0.00379064
0.00385247
0.00387978
0.00389235
0.00391222
0.00395272
0.00400735
0.00405973
0.00408314
0.00406648
0.00401403
0.00393301
0.00382926
0.00359645
0.00327101
0.00295072
0.0026633
0.00241232
0.00219504
0.0020338
0.00193962
0.00320334
0.00332227
0.00347951
0.00362983
0.0037477
0.00382721
0.00387645
0.00391198
0.00395001
0.00400228
0.00407574
0.00416485
0.00424524
0.00430048
0.00432631
0.00432453
0.0042992
0.00425478
0.00407936
0.00383895
0.00362218
0.00343198
0.00326204
0.00311429
0.00300628
0.00321336
0.00329844
0.00342691
0.00356257
0.00368069
0.00377156
0.00383794
0.00389066
0.00394326
0.00400682
0.004088
0.00418634
0.00429115
0.00438979
0.00447344
0.00453297
0.0045676
0.0045807
0.00447393
0.00434774
0.00423868
0.00413972
0.00404443
0.00395034
0.00386647
0.00322518
0.00327837
0.00337457
0.00348824
0.0035979
0.00369205
0.00376912
0.00383486
0.00389873
0.0039702
0.00405572
0.00415717
0.00427005
0.00438518
0.00449331
0.00458705
0.00456903
0.00450476
0.00445334
0.00442011
0.00439846
0.00438144
0.00436471
0.00434289
0.00431565
0.00324026
0.00326719
0.00333113
0.00341752
0.00351039
0.00359872
0.00367831
0.00375086
0.00382176
0.00389781
0.00398524
0.00408684
0.0042008
0.00432045
0.00443707
0.00436928
0.00428383
0.00422827
0.00420315
0.00420075
0.00421493
0.00424314
0.00430294
0.0043101
0.00433673
0.00325695
0.00326682
0.00330299
0.00336069
0.00343068
0.00350458
0.00357757
0.00364875
0.00372044
0.00379691
0.00388258
0.00398025
0.00408945
0.00420538
0.00418562
0.00406587
0.00397352
0.0039165
0.0038899
0.00388169
0.0038939
0.00392473
0.00396818
0.00402175
0.00407517
0.0032699
0.00327445
0.00329185
0.00332457
0.00336989
0.0034234
0.00348155
0.00354285
0.00360789
0.00367869
0.00375784
0.00384735
0.00394713
0.00405347
0.00394352
0.00378711
0.00367296
0.00359525
0.00354876
0.00352985
0.00353399
0.00355676
0.00359385
0.00364164
0.00369576
0.0032703
0.00328199
0.0032928
0.00330933
0.00333375
0.00336575
0.00340453
0.00344945
0.00350065
0.003559
0.00362579
0.00370213
0.00378802
0.00388092
0.00382817
0.0036274
0.00347708
0.00337269
0.00330085
0.00325637
0.0032357
0.00323538
0.00325175
0.00328078
0.00332021
0.00324692
0.00327691
0.00329406
0.00330627
0.00331856
0.00333414
0.00335468
0.00338117
0.00341441
0.00345521
0.00350442
0.00356267
0.00363002
0.00370526
0.00378463
0.00364222
0.00343908
0.00329183
0.00318746
0.00311391
0.00306415
0.00303539
0.0030246
0.00302854
0.0030449
0.00318782
0.00324415
0.00327832
0.0032982
0.00331023
0.00331912
0.00332828
0.00334019
0.0033567
0.00337925
0.00340893
0.00344647
0.00349216
0.00354562
0.00360548
0.00366857
0.00362108
0.00341175
0.00325315
0.0031381
0.00305456
0.00299495
0.0029551
0.00293065
0.00292
0.00308227
0.00316781
0.00322594
0.00326351
0.00328652
0.00329998
0.003308
0.0033139
0.00332033
0.00332942
0.00334277
0.00336154
0.00338646
0.00341775
0.00345518
0.00349785
0.00354406
0.00359164
0.00355774
0.00338479
0.00324955
0.00314917
0.00307493
0.00302038
0.00298203
0.00292102
0.00303505
0.00311997
0.00318091
0.00322284
0.00325025
0.00326717
0.00327706
0.00328289
0.00328712
0.00329178
0.00329843
0.00330822
0.00332193
0.00333993
0.0033623
0.00338873
0.00341861
0.00345087
0.00348424
0.00351811
0.00352839
0.00341082
0.00331637
0.00324623
0.00270235
0.00284007
0.00294985
0.00303505
0.00309924
0.00314602
0.00317878
0.00320069
0.00321456
0.00322289
0.00322782
0.0032311
0.00323419
0.00323819
0.0032439
0.00325187
0.00326242
0.00327565
0.00329145
0.00330955
0.00332962
0.00335115
0.00337328
0.00339573
0.00341821
0.00243393
0.00258702
0.00271558
0.00282129
0.00290628
0.002973
0.00302401
0.00306184
0.00308892
0.00310749
0.00311957
0.00312693
0.00313109
0.00313329
0.00313456
0.0031357
0.00313733
0.00313989
0.00314367
0.00314887
0.00315552
0.0031636
0.00317297
0.00318347
0.00319491
0.00213521
0.0022924
0.00242981
0.00254762
0.00264686
0.00272887
0.00279528
0.00284787
0.0028885
0.00291899
0.00294106
0.00295631
0.00296613
0.00297178
0.00297431
0.00297463
0.00297346
0.00297141
0.00296895
0.00296647
0.00296423
0.00296245
0.00296124
0.00296071
0.00296091
0.00179628
0.00193304
0.00207462
0.00222469
0.00233321
0.00242053
0.00249396
0.00255455
0.00260352
0.00264218
0.00267182
0.00269369
0.00270897
0.00271875
0.00272399
0.00272557
0.00272421
0.00272055
0.00271514
0.00270844
0.0027008
0.00269255
0.00268394
0.00267518
0.00266651
0.00138088
0.00150372
0.00163169
0.00176739
0.00191477
0.0020402
0.00210665
0.00216199
0.00220711
0.00224292
0.00227035
0.00229034
0.00230378
0.00231154
0.00231442
0.00231317
0.00230843
0.00230082
0.00229084
0.00227897
0.0022656
0.00225107
0.00223569
0.00221971
0.00220346
0.00105638
0.0011568
0.00126429
0.00136749
0.00141402
0.00145328
0.00148513
0.00151001
0.00152842
0.00154094
0.00154815
0.00155063
0.00154896
0.00154371
0.0015354
0.00152452
0.00151153
0.00149683
0.00148079
0.00146373
0.00144592
0.00142762
0.00140904
0.00139034
0.00137176
0.000270188
0.000275875
0.000280791
0.000285026
0.000288477
0.000291237
0.000293366
0.000294916
0.000295936
0.000296474
0.000296578
0.000296292
0.000295661
0.000294729
0.000293535
0.000292116
0.000290508
0.000288742
0.000286846
0.000284847
0.000282767
0.000280628
0.000278446
0.000276239
0.000274019
4.36949e-05
6.20466e-05
4.19107e-05
0.000126528
9.283e-05
0.000204446
0.000188244
0.000277523
0.000338605
0.000387996
0.000440429
0.000380173
0.000477026
0.000446959
0.000495959
0.000615353
0.000654515
0.000757422
0.00106659
0.00112832
0.00122712
0.00190845
0.00192576
0.0019733
0.00293646
0.00290311
0.00290232
0.00380233
0.00376178
0.00374459
0.00429014
0.00427208
0.00426303
0.00435851
0.0043758
0.00439415
0.00412526
0.00417011
0.00421266
0.00373972
0.00380007
0.00387104
0.00336363
0.00341044
0.00343998
0.0030674
0.00309685
0.00313237
0.00291863
0.00292676
0.00294192
0.00295563
0.00294072
0.00293387
0.00319475
0.0031579
0.00313068
0.00343834
0.00345832
0.00347832
0.00320573
0.00321712
0.00322905
0.00296151
0.00296274
0.00296448
0.00265872
0.00265124
0.0026439
0.00218872
0.00217407
0.00215935
0.00135537
0.00133926
0.00132335
0.000272066
0.000270125
0.000268197
2.56106e-05
4.11048e-05
5.27931e-05
5.55231e-05
6.80546e-05
7.36644e-05
7.85059e-05
8.27878e-05
8.66419e-05
9.01549e-05
9.33872e-05
9.63832e-05
9.91772e-05
0.000101797
0.000104264
0.000106598
0.000108816
0.000110932
0.000112958
0.000114907
0.000116788
0.000118612
0.000120388
0.000122125
0.00012383
0.000125512
0.000127177
0.000128835
0.000130491
0.000132154
0.000133831
0.000135529
0.000137258
0.000139026
0.000140843
0.00014272
0.000144669
0.000146705
0.000148847
0.000151115
0.000153521
0.000156
0.000158551
0.000161174
0.00016387
0.000166643
0.000169493
0.000172424
0.000175434
0.000178523
0.000181687
0.000184923
0.000188221
0.000191572
0.000194959
0.000198362
0.00020175
0.000205081
0.000208299
0.000211327
0.000214061
0.000216359
0.000218034
0.000218903
0.000218866
0.000217825
0.000215645
0.000212243
0.000208109
0.000202397
0.000194997
0.000185699
0.000174775
0.000162504
0.000149803
0.000137638
0.000125337
0.00011222
9.69879e-05
6.54642e-05
4.08468e-05
0.000119347
0.000136483
0.000153289
0.000174897
0.000200262
0.000227747
0.000256691
0.000286506
0.000316702
0.000346874
0.000376702
0.000405949
0.000434451
0.000462098
0.000488829
0.000514614
0.000539453
0.000563365
0.000586383
0.000608555
0.000629933
0.000650578
0.000670555
0.000689932
0.000708777
0.000727158
0.000745141
0.000762791
0.000780167
0.000797324
0.000814307
0.000831159
0.000847904
0.000864555
0.000881108
0.000897536
0.000913793
0.000929724
0.000945194
0.000960392
0.000976877
0.00099407
0.00101191
0.00103041
0.00104959
0.00106946
0.00109002
0.00111127
0.00113318
0.00115572
0.0011788
0.00120233
0.00122617
0.00125012
0.00127392
0.00129724
0.00131962
0.00134047
0.00135901
0.00137419
0.0013846
0.00138841
0.00138332
0.00137094
0.00135201
0.0013258
0.00129171
0.00124756
0.00119311
0.00112639
0.00104712
0.000957789
0.000855496
0.000711199
0.000545805
0.000399096
0.000287639
0.000206872
7.05752e-05
5.05912e-05
0.0001772
0.000213074
0.000249546
0.000296379
0.00035185
0.000413419
0.000478989
0.000546783
0.000615372
0.000683657
0.000750838
0.000816366
0.000879887
0.000941187
0.00100016
0.00105676
0.00111102
0.00116297
0.0012127
0.00126029
0.00130586
0.00134951
0.00139136
0.00143152
0.00147011
0.00150725
0.00154304
0.0015776
0.00161102
0.00164339
0.00167481
0.00170534
0.00173505
0.00176399
0.00179222
0.00181974
0.00184659
0.00187274
0.00189818
0.00192289
0.00194769
0.00197357
0.0019999
0.00202654
0.0020534
0.0020804
0.00210744
0.00213438
0.00216103
0.00218717
0.00221251
0.0022367
0.0022593
0.0022798
0.00229758
0.00231192
0.00232198
0.0023268
0.00232528
0.0023162
0.00229821
0.00226983
0.0021097
0.00193756
0.00180279
0.00170568
0.0016488
0.00164143
0.00169208
0.00167037
0.00155705
0.00143685
0.00130301
0.00113145
0.000897328
0.000650628
0.00044013
0.000279591
7.35664e-05
5.63595e-05
0.000224686
0.000291412
0.000354095
0.000431676
0.000521254
0.00061994
0.000724007
0.000830543
0.00093734
0.00104281
0.00114586
0.0012458
0.00134222
0.00143489
0.00152372
0.00160872
0.00168993
0.00176745
0.00184139
0.00191188
0.00197907
0.00204308
0.00210408
0.00216219
0.00221756
0.00227032
0.00232061
0.00236853
0.00241422
0.00245777
0.00249928
0.00253885
0.00257656
0.00261248
0.00264668
0.0026792
0.00271008
0.00273935
0.002767
0.00279301
0.00281734
0.00284155
0.00286533
0.00288824
0.00291005
0.00293054
0.00294949
0.00296663
0.00298163
0.00299412
0.00300365
0.0030097
0.00301167
0.00300888
0.00300056
0.00298589
0.00296395
0.00293382
0.00289455
0.00284529
0.00278528
0.00271393
0.00259671
0.0023393
0.00213034
0.00196955
0.0018559
0.00179875
0.00180462
0.00181897
0.00169581
0.00157341
0.00145075
0.00130367
0.00108479
0.000814375
0.000548329
0.000322709
7.29958e-05
6.03582e-05
0.000271142
0.000370316
0.000463618
0.000573823
0.000698597
0.00083318
0.000973132
0.00111482
0.00125561
0.00139371
0.00152797
0.00165769
0.00178248
0.00190216
0.00201669
0.00212611
0.00223051
0.00233001
0.00242476
0.0025149
0.00260059
0.00268199
0.00275925
0.00283252
0.00290195
0.00296766
0.0030298
0.00308847
0.00314379
0.00319586
0.00324477
0.00329062
0.00333346
0.00337337
0.00341041
0.0034446
0.00347599
0.00350459
0.0035304
0.0035534
0.00357355
0.00359079
0.00360683
0.00362083
0.00363236
0.0036411
0.00364677
0.00364902
0.00364746
0.00364165
0.00363106
0.00361512
0.00359313
0.00356436
0.00352799
0.00348315
0.00342894
0.00336448
0.00328897
0.00320173
0.00310232
0.00299062
0.00286692
0.00273199
0.00258719
0.00242119
0.00221115
0.00205385
0.00194794
0.00183279
0.00169814
0.001574
0.00146052
0.00134158
0.00116372
0.000904614
0.000615191
0.000343742
7.0772e-05
6.32106e-05
0.000310342
0.000448678
0.000574853
0.000717777
0.000875608
0.00104284
0.00121438
0.00138635
0.00155604
0.00172168
0.00188217
0.00203688
0.0021855
0.00232792
0.00246414
0.00259424
0.00271834
0.00283658
0.00294911
0.0030561
0.00315771
0.00325409
0.00334539
0.00343177
0.00351336
0.00359028
0.00366267
0.00373063
0.00379426
0.00385364
0.00390886
0.00395998
0.00400705
0.00405013
0.00408926
0.00412444
0.00415571
0.00418306
0.00420648
0.00422593
0.00424138
0.00425273
0.00426084
0.00426609
0.00426784
0.0042657
0.00425934
0.00424839
0.00423247
0.00421109
0.00418371
0.0041497
0.00410835
0.00405884
0.00400029
0.00393175
0.00385222
0.00376074
0.00365639
0.00353846
0.00340647
0.00326036
0.00310062
0.00292859
0.00274676
0.00255877
0.00236917
0.00218307
0.00200539
0.00183954
0.00168753
0.00155096
0.00143089
0.00132
0.00118275
0.000955794
0.000660683
0.000353651
6.76831e-05
6.5446e-05
0.000345786
0.000525364
0.000684983
0.000859037
0.00104675
0.00124243
0.00144088
0.00163827
0.00183199
0.00202043
0.00220262
0.00237804
0.00254649
0.00270791
0.00286235
0.00300992
0.00315076
0.00328502
0.00341286
0.00353444
0.0036499
0.00375941
0.00386312
0.00396115
0.00405364
0.00414072
0.00422249
0.00429906
0.0043705
0.0044369
0.00449832
0.0045548
0.0046064
0.00465313
0.00469503
0.0047321
0.00476434
0.00479175
0.00481432
0.00483202
0.00484481
0.00485266
0.0048555
0.00485474
0.00484976
0.00484017
0.00482562
0.00480576
0.0047802
0.00474848
0.00471006
0.00466427
0.00461038
0.0045475
0.00447465
0.00439073
0.00429457
0.00418495
0.00406069
0.00392073
0.00376428
0.00359098
0.00340117
0.00319615
0.00297855
0.00275253
0.00252371
0.00229886
0.00208489
0.00188721
0.00170855
0.00154813
0.00140781
0.00128553
0.00115875
0.000968351
0.000680233
0.000351902
6.53658e-05
6.74071e-05
0.000378416
0.000599801
0.000792272
0.000994966
0.00120886
0.00142868
0.00164952
0.00186779
0.00208115
0.0022882
0.00248814
0.0026806
0.00286543
0.00304267
0.0032124
0.00337474
0.00352985
0.00367787
0.00381895
0.00395326
0.00408092
0.0042021
0.00431693
0.00442553
0.00452805
0.00462458
0.00471523
0.0048001
0.00487926
0.00495278
0.00502072
0.00508311
0.00513999
0.00519136
0.00523725
0.00527765
0.00531255
0.00534196
0.00536584
0.00538418
0.00539694
0.00540407
0.00540549
0.00540189
0.00539371
0.00538048
0.00536185
0.0053375
0.00530709
0.00527017
0.00522623
0.00517463
0.0051146
0.00504522
0.00496542
0.00487396
0.00476947
0.00465042
0.00451526
0.00436242
0.00419054
0.0039986
0.00378624
0.0035541
0.00330423
0.00304055
0.00276921
0.0024983
0.00223697
0.00199325
0.00177173
0.00157632
0.00140715
0.00126094
0.00110302
0.000883313
0.000645788
0.000346319
6.37682e-05
6.93146e-05
0.000409385
0.000672249
0.000896248
0.00112466
0.00136088
0.00160066
0.00183965
0.00207468
0.00230377
0.00252575
0.00274002
0.00294633
0.00314462
0.00333497
0.00351748
0.00369229
0.00385954
0.00401937
0.00417194
0.00431737
0.00445581
0.00458739
0.00471225
0.0048305
0.00494228
0.00504768
0.00514681
0.00523976
0.0053266
0.0054074
0.0054822
0.00555103
0.00561393
0.0056709
0.00572195
0.00576706
0.00580622
0.00583942
0.00586662
0.00588782
0.00590296
0.00591201
0.00591491
0.00591161
0.00590333
0.00588969
0.00587038
0.00584515
0.00581369
0.00577564
0.00573052
0.00567776
0.00561661
0.00554617
0.00546533
0.0053728
0.00526703
0.00514628
0.00500862
0.00485199
0.00467431
0.00447371
0.00424875
0.00399882
0.00372472
0.00342898
0.00311718
0.00279753
0.00247987
0.00217474
0.0018945
0.00164821
0.00143752
0.00124635
0.00103437
0.000856602
0.000629877
0.000353606
6.31935e-05
7.13523e-05
0.000440226
0.000743923
0.000997729
0.00124874
0.00150349
0.0017592
0.00201238
0.00226042
0.00250172
0.00273537
0.00296096
0.00317835
0.00338754
0.00358861
0.0037817
0.00396693
0.00414442
0.00431432
0.00447675
0.00463183
0.0047797
0.00492049
0.00505431
0.00518129
0.00530155
0.00541519
0.00552231
0.00562301
0.00571734
0.00580539
0.00588718
0.00596277
0.00603216
0.00609537
0.00615238
0.00620319
0.00624777
0.00628609
0.00631812
0.00634382
0.00636314
0.00637602
0.00638239
0.0063821
0.00637609
0.00636441
0.00634688
0.00632332
0.00629349
0.00625711
0.00621381
0.00616309
0.0061043
0.00603663
0.00595902
0.00587019
0.00576859
0.00565236
0.00551936
0.00536716
0.00519312
0.00499452
0.00476873
0.00451361
0.00422801
0.0039125
0.00357056
0.00320804
0.00283374
0.00246167
0.00210839
0.00178973
0.00151579
0.00128636
0.00102478
0.000834358
0.000638074
0.000388611
6.48032e-05
7.38038e-05
0.000473277
0.000817134
0.0010989
0.00136934
0.00163882
0.00190658
0.0021702
0.00242774
0.00267803
0.00292041
0.00315461
0.00338057
0.00359832
0.00380796
0.00400959
0.00420331
0.00438925
0.00456751
0.0047382
0.00490146
0.00505738
0.00520611
0.00534775
0.00548243
0.00561025
0.00573134
0.00584579
0.00595367
0.00605508
0.00615008
0.0062387
0.00632099
0.00639696
0.00646662
0.00652997
0.00658697
0.0066376
0.00668181
0.00671957
0.00675081
0.00677548
0.00679351
0.00680483
0.00680935
0.00680701
0.00679885
0.00678469
0.00676441
0.00673788
0.00670492
0.00666526
0.00661853
0.00656424
0.00650169
0.00642999
0.00634798
0.00625423
0.00614694
0.00602395
0.00588272
0.00572031
0.00553344
0.00531861
0.0050723
0.00479141
0.00447403
0.00411958
0.00373075
0.00331425
0.00288177
0.00245015
0.00204121
0.00167619
0.00136785
0.00111567
0.000826337
0.000655564
0.000447726
7.05537e-05
7.69527e-05
0.00051094
0.000856262
0.00119907
0.00149022
0.00177059
0.00204647
0.00231686
0.00258057
0.00283679
0.00308511
0.00332537
0.00355752
0.0037816
0.00399768
0.00420582
0.0044061
0.00459862
0.00478347
0.00496075
0.00513056
0.00529303
0.00544827
0.00559641
0.00573756
0.00587184
0.00599937
0.00612023
0.00623451
0.00634229
0.00644364
0.00653859
0.00662718
0.00670944
0.00678536
0.00685495
0.00691816
0.00697498
0.00702534
0.00706917
0.00710642
0.00713699
0.00716079
0.00717772
0.00718764
0.00719038
0.00718681
0.00717698
0.00716092
0.0071386
0.00710997
0.00707489
0.00703315
0.00698441
0.00692818
0.00686376
0.00679023
0.00670635
0.00661055
0.00650087
0.00637488
0.00622969
0.00606189
0.00586758