/*--------------------------------*- C++ -*----------------------------------*\
| =========                 |                                                 |
| \\      /  F ield         | OpenFOAM: The Open Source CFD Toolbox           |
|  \\    /   O peration     | Version:  v2012                                 |
|   \\  /    A nd           | Website:  www.openfoam.com                      |
|    \\/     M anipulation  |                                                 |
\*---------------------------------------------------------------------------*/
FoamFile
{
    version     2.0;
    format      ascii;
    class       volScalarField;
    location    "466";
    object      omega;
}
// * * * * * * * * * * * * * * * * * * * * * * * * * * * * * * * * * * * * * //

dimensions      [0 0 -1 0 0 0 0];


internalField   nonuniform List<scalar> 
6556
(
500.398
178.024
155.539
153.036
154.088
154.088
153.036
155.539
178.024
500.398
384.707
157.822
130.834
126.329
126.381
126.381
126.329
130.834
157.822
384.707
312.605
138.283
112.62
107.244
106.571
106.571
107.244
112.62
138.283
312.605
264.274
121.699
98.5739
92.98
91.8714
91.8714
92.98
98.5739
121.699
264.274
229.927
108.094
87.4358
81.9437
80.606
80.606
81.9437
87.4357
108.094
229.927
204.347
96.9816
78.4229
73.1689
71.7306
71.7306
73.1689
78.4228
96.9814
204.347
184.564
87.8476
71.0102
66.0382
64.5738
64.5738
66.0382
71.01
87.8472
184.564
168.787
80.2632
64.8281
60.1389
58.6894
58.6894
60.1388
64.8278
80.2627
168.788
155.887
73.8941
59.6087
55.1845
53.7712
53.7711
55.1843
59.6084
73.8934
155.888
145.118
68.4854
55.1537
50.97
49.6026
49.6025
50.9698
55.1532
68.4844
145.12
135.973
63.8435
51.3134
47.3452
46.0269
46.0268
47.3449
51.3127
63.842
135.975
128.092
59.8203
47.9735
44.1971
42.9278
42.9277
44.1967
47.9725
59.8181
128.095
121.218
56.3021
45.0451
41.4396
40.2173
40.2171
41.4389
45.0436
56.2988
121.222
115.157
53.2004
42.4587
39.0058
37.8276
37.8272
39.0047
42.4564
53.1954
115.164
109.766
50.4457
40.1591
36.8429
35.7057
35.7052
36.8413
40.1557
50.4384
109.775
104.933
47.983
38.102
34.9089
33.8096
33.8088
34.9066
38.097
47.9724
104.945
100.569
45.7684
36.2517
33.17
32.1056
32.1045
33.1665
36.2445
45.7532
100.587
96.6053
43.7663
34.5793
31.5987
30.5663
30.5648
31.5936
34.5687
43.7456
96.6296
92.9852
41.948
33.0607
30.1722
29.1693
29.1673
30.1651
33.0452
41.9203
93.0185
89.6626
40.29
31.6764
28.872
27.8961
27.8932
28.8619
31.654
40.2628
89.7045
86.5991
38.7729
30.4099
27.6825
26.7312
26.7269
27.666
30.3557
38.3975
76.4305
83.7626
37.3807
29.2477
26.5906
25.6614
25.6547
26.5623
29.1358
36.5663
65.5332
81.1258
36.0997
28.178
25.5851
24.6757
24.6652
25.5382
27.9834
34.7271
56.8871
78.6653
34.9183
27.191
24.6565
23.7646
23.749
24.5844
26.8928
32.7207
49.9986
76.361
33.8266
26.2783
23.7968
22.9201
22.8988
23.6972
25.8189
30.701
44.5665
74.1955
32.8163
25.4326
22.999
22.1351
22.1064
22.8702
24.7634
28.8595
40.337
72.1533
31.8802
24.6478
22.2571
21.4036
21.3648
22.0829
23.7848
27.2839
37.0342
70.2207
31.0126
23.9189
21.5661
20.7204
20.6688
21.3352
22.8729
25.9652
34.4265
68.3856
30.2085
23.2413
20.9216
20.0809
20.0139
20.627
22.0277
24.8458
32.2636
66.6367
29.4638
22.6114
20.3199
19.4815
19.3969
19.9571
21.2454
23.8658
30.2873
64.964
28.7756
22.0264
19.7579
18.9189
18.8149
19.324
20.5197
22.9829
28.4912
63.3579
28.1412
21.4839
19.2332
18.3906
18.2655
18.7256
19.8434
22.1667
26.8606
61.8097
27.5578
20.9822
18.7437
17.8944
17.7466
18.1597
19.208
21.3854
25.3761
60.311
27.0245
20.5201
18.2882
17.4288
17.2566
17.6236
18.6054
20.6257
24.018
58.8537
26.5405
20.0971
17.8657
16.9928
16.7942
17.1152
18.0287
19.8814
22.7669
57.43
26.1054
19.7134
17.4762
16.5858
16.3585
16.6322
17.4725
19.1494
21.6049
56.0321
25.7193
19.3697
17.12
16.2079
15.9493
16.1735
16.9336
18.4294
20.5173
54.6524
25.3821
19.0675
16.7982
15.8599
15.5668
15.7386
16.4112
17.7233
19.4928
53.2833
25.0941
18.8087
16.5129
15.5432
15.2121
15.328
15.9066
17.0349
18.5241
51.9171
24.8549
18.5957
16.2663
15.2601
14.8871
14.9438
15.423
16.3703
17.6088
50.5463
24.6636
18.4314
16.0618
15.0135
14.5946
14.5888
14.9657
15.7374
16.7484
49.1629
24.5185
18.3185
15.9031
14.8071
14.3382
14.2673
14.5411
15.1455
15.9487
47.759
24.4173
18.2599
15.7944
14.6451
14.1221
13.984
14.1564
14.6046
15.2183
46.3261
24.3563
18.2581
15.7402
14.5325
13.9511
13.7444
13.8191
14.1242
14.567
44.8551
24.3308
18.3148
15.7448
14.4741
13.8304
13.5538
13.5356
13.7124
14.0037
43.3356
24.3344
18.431
15.8125
14.4751
13.7649
13.4174
13.3116
13.3747
13.5349
41.7559
24.3591
18.6062
15.9465
14.5401
13.7597
13.3398
13.151
13.1141
13.1628
40.102
24.3952
18.8383
16.1493
14.6732
13.8191
13.3249
13.0564
12.9308
12.8855
38.3558
24.4313
19.1226
16.421
14.8771
13.9464
13.3757
13.0293
12.8232
12.6977
36.4932
24.4528
19.4505
16.7583
15.1516
14.1431
13.4934
13.0696
12.7884
12.5927
34.479
24.4386
19.8059
17.1512
15.4914
14.4063
13.6766
13.1754
12.8224
12.563
32.2584
24.347
20.1551
17.5762
15.8803
14.7248
13.9174
13.3409
12.9196
12.6016
29.7084
24.0859
20.4278
17.9792
16.278
15.0699
14.1958
13.5526
13.0706
12.7035
26.6741
23.5482
20.5368
18.2783
16.6154
15.3888
14.4748
13.7866
13.2675
12.8736
23.0442
22.4365
20.3299
18.3754
16.8176
15.6228
14.7128
14.0278
13.5072
13.1022
18.2798
20.0395
19.402
18.0648
16.7783
15.7171
14.902
14.2722
13.7771
13.3793
13.9511
15.96
17.2204
16.9847
16.3107
15.6381
15.0373
14.5212
14.0844
13.7165
12.4898
10.5464
13.5109
14.8574
15.2698
15.2567
15.0577
14.7854
14.4953
14.2168
12.8229
9.4177
10.4742
12.7064
14.0962
14.919
15.3629
15.5506
15.5732
15.5239
13.4357
14.1676
17.2865
21.0866
24.4695
27.4848
29.4383
31.0326
32.3649
33.4419
31.8739
19.9621
20.4245
21.0656
21.5764
21.8809
21.9678
21.8217
21.3944
20.8804
20.2705
19.5591
18.7621
17.9098
17.0186
16.098
15.1352
14.2491
13.3899
12.5246
11.6242
10.6513
9.54397
8.17692
7.02027
40.8424
14.1508
8.83741
7.75942
7.44494
7.29937
7.18374
7.04988
6.8684
6.65658
6.42911
6.20803
6.0046
5.82291
5.66795
5.54662
5.48314
5.63676
5.92739
6.30052
6.69481
7.02801
7.20248
7.17921
10.8828
45.495
19.3082
9.70751
7.18133
6.33262
5.9231
5.65007
5.41764
5.17835
4.91548
4.66339
4.42754
4.21117
4.01839
3.85687
3.73649
3.6751
3.73175
3.92151
4.25062
4.70827
5.24641
5.77677
6.33919
11.9292
45.9906
23.3541
12.8162
8.50592
6.83079
6.05029
5.56345
5.18909
4.85718
4.53025
4.22657
3.95325
3.70208
3.47433
3.27911
3.12787
3.03542
3.0325
3.1389
3.37443
3.75453
4.27111
4.87835
5.70528
12.3257
44.5704
26.5543
15.4701
10.3924
7.87944
6.59224
5.83749
5.29245
4.85109
4.47072
4.12284
3.81456
3.53135
3.26976
3.04015
2.85703
2.73549
2.69616
2.75418
2.92805
3.23909
3.69913
4.30231
5.26403
12.3675
42.3425
28.1446
17.7097
12.0562
9.10803
7.36591
6.2833
5.53891
4.97473
4.52431
4.1483
3.81034
3.50105
3.20704
2.94054
2.72226
2.57236
2.50783
2.53764
2.67469
2.93832
3.34812
3.92813
4.96777
12.2129
39.7346
28.8873
19.5318
13.6109
10.2195
8.20718
6.86623
5.89803
5.18735
4.65069
4.23091
3.88208
3.55948
3.23458
2.92736
2.66545
2.48251
2.39715
2.41034
2.5263
2.75922
3.13078
3.68583
4.77125
11.9426
37.1578
29.029
20.755
14.9751
11.2898
8.97054
7.41613
6.30402
5.4734
4.84208
4.36651
3.99682
3.67119
3.33956
2.99485
2.67836
2.45036
2.34265
2.34463
2.44804
2.66046
3.00332
3.53564
4.64536
11.5881
34.7579
28.7278
21.5106
16.0818
12.2819
9.72147
7.94853
6.67284
5.73421
5.04629
4.53845
4.15206
3.82624
3.49481
3.12834
2.76267
2.48996
2.35283
2.33955
2.43032
2.6253
2.94469
3.45875
4.58738
11.1819
32.5543
28.0745
21.9556
16.9021
13.1305
10.4248
8.47565
7.04758
5.99754
5.24446
4.71144
4.32674
4.01651
3.6987
3.32822
2.92264
2.59191
2.41826
2.38862
2.468
2.64917
2.95247
3.46298
4.64204
10.8067
30.5404
27.2002
22.1371
17.4793
13.8232
11.052
8.97521
7.4231
6.27767
5.46167
4.89963
4.51761
4.23591
3.9552
3.60109
3.17692
2.77705
2.54271
2.48642
2.55399
2.72562
3.02128
3.54
4.76529
10.4338
28.7132
26.2314
22.0732
17.8356
14.3643
11.5884
9.43042
7.78662
6.56758
5.69748
5.11244
4.73031
4.48433
4.26783
3.96637
3.55278
3.09119
2.75444
2.63929
2.68835
2.85331
3.14851
3.67947
4.91719
10.0485
27.0549
25.2274
21.7895
18.0429
14.7525
12.0207
9.82752
8.1253
6.85566
5.9531
5.34832
4.96886
4.75584
4.61582
4.41816
4.06734
3.59132
3.12558
2.87603
2.88071
3.03448
3.33004
3.86363
5.04871
9.6534
25.5432
24.2147
21.3708
18.0992
14.9996
12.3518
10.1638
8.43389
7.13474
6.21344
5.60258
5.22965
5.03966
4.96642
4.90096
4.7141
4.31782
3.78717
3.32557
3.17353
3.28718
3.57656
4.10093
5.16936
9.29268
24.156
23.2142
20.8696
18.0244
15.1384
12.6036
10.4469
8.71223
7.40074
6.47199
5.86079
5.49399
5.32549
5.2881
5.3253
5.34772
5.22438
4.84271
4.28412
3.77077
3.71753
3.95671
4.46136
5.38102
8.48625
22.873
22.2354
20.315
17.8335
15.2131
12.7859
10.6828
8.96317
7.65195
6.72129
6.11136
5.74924
5.5895
5.56791
5.63812
5.78338
5.94066
6.0029
5.8404
5.44228
4.94181
4.90837
5.23898
5.95321
7.9144
21.6748
21.278
19.7227
17.5734
15.2298
12.9234
10.8948
9.19917
7.89413
6.95934
6.34226
5.98063
5.82217
5.7961
5.8528
5.99326
6.21684
6.51017
6.82755
7.11839
7.3664
7.61981
8.17331
9.15534
10.3789
20.5468
20.342
19.1027
17.2633
15.1806
13.0536
11.0934
9.43193
8.12877
7.18684
6.55513
6.18082
6.01581
5.98457
6.02608
6.11301
6.25071
6.45501
6.72865
7.06449
7.44667
7.85136
8.24951
8.65384
9.04056
19.4775
19.4249
18.4631
16.9173
15.081
13.1711
11.2971
9.67888
8.37214
7.41071
6.75377
6.35138
6.16517
6.126
6.16859
6.25556
6.36827
6.50355
6.66814
6.87486
7.13182
7.41076
7.67767
7.89949
8.05283
18.4603
18.5243
17.8055
16.5311
14.9407
13.2353
11.5419
9.96329
8.66297
7.66719
6.96145
6.50837
6.27515
6.2033
6.23108
6.31708
6.43562
6.57169
6.71623
6.86461
7.01465
7.1632
7.29017
7.34953
7.28362
17.4935
17.6398
17.1305
16.1087
14.7652
13.264
11.7443
10.3021
9.00988
7.99436
7.23652
6.70963
6.40164
6.26348
6.2373
6.28118
6.3669
6.4746
6.58759
6.68997
6.76805
6.81096
6.80624
6.72221
6.52062
16.5811
16.7755
16.4401
15.6489
14.5422
13.2574
11.9131
10.6109
9.42317
8.40138
7.60444
7.01764
6.62466
6.40298
6.30166
6.27927
6.30454
6.35379
6.40689
6.44528
6.45385
6.42329
6.34898
6.21619
6.00743
15.7322
15.9407
15.74
15.1519
14.2689
13.2003
12.0464
10.8907
9.80975
8.86109
8.06917
7.43779
6.98665
6.6873
6.50578
6.41477
6.38214
6.38226
6.39242
6.39315
6.3693
6.31218
6.21839
6.08696
5.91359
14.9596
15.1509
15.0425
14.6224
13.9423
13.0804
12.1179
11.1273
10.1714
9.30326
8.55526
7.9405
7.46555
7.11777
6.87324
6.71561
6.62855
6.58819
6.57136
6.55683
6.5286
6.47733
6.39833
6.28902
6.15109
14.2773
14.426
14.3675
14.0738
13.5657
12.8929
12.1152
11.2913
10.474
9.70777
9.02596
8.4469
7.97781
7.61482
7.34497
7.15349
7.02546
6.9475
6.90756
6.88382
6.86004
6.82486
6.77182
6.69656
6.59582
13.6974
13.7871
13.7412
13.5292
13.1536
12.6413
12.0317
11.3685
10.6938
10.0439
9.44645
8.92171
8.48007
8.1234
7.84729
7.64346
7.50227
7.41137
7.35426
7.32007
7.29894
7.27778
7.248
7.2082
7.15137
13.2267
13.2511
13.1908
13.0197
12.7332
12.3434
11.8742
11.3551
10.8162
10.2847
9.78389
9.33137
8.93813
8.60975
8.34621
8.14524
8.00062
7.90361
7.84369
7.8107
7.79236
7.78117
7.77112
7.75669
7.73311
12.8655
12.8272
12.7377
12.5773
12.3402
12.0323
11.6675
11.2636
10.8405
10.4177
10.0126
9.63933
9.30757
9.02455
8.79362
8.61306
8.47982
8.38893
8.33361
8.30625
8.29817
8.30109
8.30713
8.31174
8.31232
12.6078
12.5146
12.3922
12.2255
12.0099
11.749
11.4505
11.1261
10.7893
10.453
10.1294
9.82857
9.55807
9.324
9.13138
8.98031
8.86849
8.79297
8.74966
8.73328
8.73761
8.75618
8.78278
8.81204
8.839
12.4439
12.3047
12.1526
11.9748
11.7667
11.5285
11.2664
10.9891
10.7063
10.4274
10.161
9.91395
9.6916
9.49779
9.33617
9.20901
9.11528
9.0525
9.01788
9.00806
9.01912
9.0465
9.08547
9.13148
9.18006
12.3633
12.186
12.0111
11.8247
11.6187
11.3923
11.1495
10.8971
10.643
10.3949
10.1596
9.94245
9.74735
9.57691
9.43282
9.31618
9.22711
9.16472
9.1269
9.11105
9.11442
9.13405
9.16681
9.2096
9.25896
12.3576
12.152
11.9604
11.7673
11.5635
11.346
11.1162
10.8787
10.6399
10.406
10.1832
9.97631
9.7888
9.62294
9.47996
9.36026
9.26349
9.18844
9.13352
9.09733
9.07795
9.07307
9.08062
9.09852
9.12451
12.4288
12.1999
11.994
11.7956
11.5944
11.3853
11.1673
10.9424
10.715
10.4898
10.272
10.066
9.87516
9.702
9.54789
9.41343
9.29849
9.20225
9.12342
9.06035
9.01106
8.97372
8.94701
8.92954
8.91968
12.5748
12.3266
12.1077
11.9035
11.7033
11.5008
11.2932
11.0803
10.8642
10.648
10.4355
10.2302
10.0352
9.85298
9.68513
9.53266
9.39593
9.27476
9.16853
9.0762
8.99654
8.9281
8.86935
8.8189
8.77557
12.7894
12.5268
12.2962
12.0846
11.8824
11.6827
11.4819
11.2784
11.0725
10.8659
10.6607
10.4594
10.2644
10.0778
9.90107
9.73545
9.58161
9.43982
9.31004
9.19189
9.08478
8.98786
8.90021
8.82089
8.74916
13.0643
12.795
12.5567
12.3388
12.1329
11.9331
11.7353
11.5373
11.3387
11.1397
10.9417
10.746
10.5542
10.368
10.1885
10.0168
9.85375
9.69968
9.55483
9.4192
9.29259
9.17465
9.06492
8.96291
8.86831
13.4162
13.1531
12.9161
12.6968
12.489
12.2882
12.0907
11.8948
11.6999
11.5059
11.3134
11.1232
10.9364
10.7539
10.5767
10.4056
10.2413
10.0841
9.93433
9.79209
9.6573
9.52981
9.40936
9.29564
9.18861
13.9703
13.7414
13.5266
13.3221
13.1238
12.9297
12.7387
12.5502
12.3641
12.1803
11.9993
11.8216
11.6479
11.4787
11.3146
11.1563
11.004
10.8581
10.7186
10.5856
10.4589
10.3385
10.2239
10.115
10.0116
15.4487
15.3603
15.268
15.1751
15.0737
14.9672
14.858
14.7469
14.6346
14.5218
14.4091
14.2972
14.1864
14.0775
13.9707
13.8664
13.7647
13.6659
13.5699
13.4766
13.3859
13.2976
13.2115
13.1273
13.0449
34.2892
35.0109
35.6348
36.1723
36.6102
36.9604
37.2307
37.4274
37.5568
37.6251
37.6382
37.602
37.5219
37.4036
37.2521
37.0721
36.868
36.6438
36.4032
36.1495
35.8856
35.6141
35.3372
35.0571
34.7753
7.62034
7.87419
14.8865
12.5374
13.6545
12.0967
11.0967
10.6386
9.65578
9.15591
8.8028
8.02599
7.97578
7.55754
6.7432
6.99876
6.49778
5.77869
6.17034
5.73063
5.21297
5.72249
5.40865
5.06829
5.70535
5.48862
5.26341
5.99588
5.83758
5.67968
6.48096
6.36024
6.23388
7.07953
6.99605
6.89886
7.6996
7.65568
7.59811
8.30704
8.2931
8.26895
8.8588
8.8728
8.88179
9.22353
9.26363
9.29922
9.30692
9.35577
9.40454
9.15337
9.18592
9.2214
8.91625
8.91703
8.92127
8.74197
8.71257
8.68639
8.69077
8.63717
8.58719
8.78972
8.71616
8.64648
9.09864
9.01341
8.93186
9.9242
9.84062
9.76
12.9735
12.9031
12.8332
34.5275
34.2811
34.0365
4.26232
5.21652
6.69984
7.775
8.63662
9.34853
9.96296
10.5064
10.9955
11.4413
11.8515
12.2317
12.5863
12.9187
13.2318
13.5281
13.8095
14.078
14.3352
14.5825
14.8213
15.0528
15.2782
15.4985
15.7149
15.9283
16.1397
16.3501
16.5603
16.7713
16.9841
17.1997
17.4191
17.6435
17.874
18.1122
18.3596
18.618
18.8898
19.1776
19.483
19.7976
20.1214
20.4543
20.7964
21.1482
21.51
21.882
22.264
22.656
23.0576
23.4681
23.8867
24.312
24.7419
25.1737
25.6036
26.0264
26.4348
26.8192
27.1661
27.4578
27.6703
27.7806
27.7759
27.6438
27.3671
26.9354
26.4107
25.6859
24.7467
23.5668
22.1804
20.6231
19.0113
17.4674
15.9062
14.2416
12.3086
10.895
8.63065
5.75374
6.47799
6.92824
7.16939
7.27668
7.29787
7.27377
7.22689
7.17031
7.11138
7.05421
7.00096
6.9527
6.90978
6.87222
6.83979
6.81216
6.78895
6.76979
6.7543
6.74214
6.73301
6.72664
6.72282
6.72138
6.72217
6.72513
6.73023
6.73749
6.74702
6.75895
6.77353
6.79106
6.81197
6.8368
6.86625
6.90112
6.94288
6.99296
7.05101
7.10833
7.16714
7.22778
7.29045
7.35536
7.42271
7.49269
7.56554
7.64148
7.72075
7.80359
7.89018
7.98072
8.07529
8.17392
8.27646
8.38259
8.49168
8.60272
8.71421
8.8244
8.93243
9.03817
9.12858
9.18698
9.19588
9.14437
9.02034
8.81015
8.55597
8.26805
7.96819
7.71986
7.81368
8.27843
8.89228
9.42124
9.73681
14.9121
10.6895
5.91082
6.05976
6.16243
6.15316
6.06035
5.92197
5.76964
5.61939
5.47917
5.35231
5.23967
5.14082
5.05469
4.97999
4.91538
4.85956
4.81139
4.76981
4.73392
4.70296
4.67627
4.65329
4.63358
4.61676
4.60253
4.59067
4.58101
4.57344
4.5679
4.56437
4.56289
4.56353
4.56642
4.57171
4.57961
4.59036
4.60423
4.62155
4.64266
4.66788
4.69616
4.72588
4.75805
4.79309
4.8314
4.87335
4.91937
4.96994
5.02554
5.0867
5.15398
5.22795
5.30919
5.39824
5.49562
5.60175
5.71692
5.84119
5.97434
6.11568
6.26385
6.41688
6.57138
6.72459
6.86223
6.96774
7.02252
7.00632
6.90497
6.70807
6.43355
6.09865
5.76978
5.59629
5.7937
6.34791
7.15004
8.15501
15.5441
11.9083
5.86737
5.64825
5.56193
5.42392
5.25319
5.06528
4.88215
4.71375
4.5638
4.43282
4.31978
4.22296
4.1404
4.07019
4.01053
3.95985
3.91675
3.88008
3.84882
3.82215
3.79938
3.77994
3.76338
3.74931
3.73745
3.72757
3.71949
3.71311
3.70835
3.70517
3.7036
3.70366
3.70544
3.70904
3.71459
3.72227
3.73228
3.74483
3.7602
3.77867
3.8006
3.82494
3.85205
3.88248
3.91669
3.95515
3.99837
4.04689
4.1013
4.16224
4.23039
4.30646
4.39121
4.4854
4.5898
4.70512
4.83204
4.97107
5.12251
5.28635
5.46199
5.64783
5.84104
6.04
6.23721
6.41818
6.56414
6.65037
6.65187
6.54824
6.31997
5.94095
5.47646
5.08269
4.99754
5.31487
6.0217
7.23106
15.4236
12.7532
5.73839
5.28515
5.09261
4.89461
4.68759
4.48534
4.29887
4.13335
3.98984
3.86722
3.76348
3.67629
3.60332
3.54242
3.49167
3.44941
3.41421
3.3849
3.36049
3.34016
3.32323
3.30917
3.29754
3.28797
3.28021
3.27403
3.26928
3.26585
3.26367
3.26271
3.26298
3.26452
3.26739
3.27169
3.27754
3.28511
3.29458
3.30615
3.32009
3.33667
3.35622
3.37908
3.40458
3.43339
3.46603
3.503
3.54481
3.59206
3.64535
3.70538
3.77286
3.84861
3.93347
4.02837
4.13426
4.25214
4.38305
4.52796
4.68779
4.86328
5.0548
5.26208
5.48382
5.71794
5.96113
6.20566
6.43853
6.63796
6.77332
6.80623
6.69083
6.38205
5.87838
5.28827
4.87802
4.95197
5.49696
6.73785
14.9537
13.3559
5.60352
4.98125
4.72322
4.49334
4.27248
4.06775
3.88544
3.72755
3.59335
3.48076
3.38719
3.30997
3.2466
3.19481
3.15266
3.11845
3.09078
3.06848
3.05059
3.0363
3.02499
3.01612
3.00928
3.00414
3.00043
2.99797
2.99661
2.99624
2.9968
2.99827
3.00066
3.00399
3.00834
3.0138
3.02049
3.02855
3.03817
3.04955
3.06294
3.07861
3.09686
3.11804
3.14216
3.16933
3.2001
3.23499
3.27453
3.31928
3.36987
3.427
3.49143
3.56399
3.6456
3.73728
3.84013
3.95538
4.08435
4.22843
4.38914
4.56798
4.76637
4.98551
5.22612
5.48827
5.77092
6.07047
6.37933
6.68356
6.95812
7.16143
7.23174
7.08936
6.6629
5.9811
5.28332
5.03606
5.3485
6.52334
14.301
13.8282
5.48958
4.73095
4.42748
4.17947
3.9531
3.75033
3.57404
3.42425
3.29911
3.19587
3.11157
3.04334
2.98855
2.94489
2.91038
2.88334
2.86238
2.84634
2.83428
2.82544
2.81918
2.81501
2.81253
2.81142
2.81144
2.8124
2.81416
2.81664
2.81976
2.82351
2.82789
2.83294
2.83871
2.84528
2.85278
2.86134
2.87114
2.88236
2.89524
2.91003
2.92702
2.94654
2.96893
2.9941
3.02257
3.05483
3.09139
3.13283
3.17975
3.23285
3.29289
3.36071
3.43727
3.52362
3.62096
3.73063
3.85414
3.99319
4.14969
4.32576
4.52372
4.74602
4.99512
5.27329
5.58226
5.92247
6.29174
6.6832
7.08127
7.45512
7.7499
7.8789
7.69552
7.09299
6.2115
5.53408
5.56885
6.66798
13.8114
14.2425
5.40124
4.52444
4.18565
3.92592
3.69753
3.49802
3.3278
3.18553
3.06852
2.97356
2.89743
2.83707
2.7898
2.75327
2.72547
2.70474
2.6897
2.6792
2.67232
2.66831
2.66656
2.6666
2.66802
2.67054
2.67391
2.67796
2.68256
2.68761
2.69306
2.69888
2.70508
2.71167
2.71872
2.7263
2.73451
2.74348
2.75337
2.76437
2.77669
2.79058
2.80632
2.82422
2.84462
2.86772
2.89375
2.92321
2.95661
2.99449
3.03747
3.0862
3.14144
3.20402
3.27488
3.35508
3.44583
3.54851
3.6647
3.79623
3.94524
4.11422
4.30604
4.52405
4.77202
5.05412
5.37467
5.73757
6.14567
6.59857
7.09138
7.61163
8.13209
8.57136
8.76691
8.48949
7.61553
6.46411
6.10893
7.02561
13.4739
14.6456
5.33778
4.3535
3.98411
3.71532
3.48616
3.29006
3.12547
2.98992
2.88011
2.79245
2.72349
2.67006
2.6294
2.59912
2.57724
2.56207
2.55225
2.54666
2.54438
2.54467
2.54695
2.55074
2.55567
2.56145
2.56785
2.5747
2.58187
2.58927
2.59685
2.60457
2.61244
2.62047
2.62871
2.63723
2.64611
2.65548
2.66548
2.67629
2.68811
2.70118
2.71578
2.7322
2.75077
2.77188
2.79561
2.82245
2.85288
2.88741
2.92664
2.9712
3.02181
3.07927
3.14448
3.21846
3.30237
3.39756
3.50556
3.6282
3.76764
3.92646
4.10779
4.31542
4.55394
4.82884
5.14662
5.51364
5.93765
6.42418
6.97922
7.6094
8.30462
9.01936
9.63718
9.91565
9.49335
8.21925
7.0457
7.51503
13.3524
15.0761
5.2986
4.21245
3.81389
3.53651
3.3067
3.11374
2.95422
2.8247
2.72131
2.64014
2.57755
2.53025
2.49544
2.47071
2.45406
2.44382
2.43863
2.43739
2.4392
2.44334
2.44922
2.45639
2.46449
2.47323
2.48238
2.4918
2.50134
2.51092
2.52049
2.53002
2.53949
2.54892
2.55835
2.56783
2.57745
2.5873
2.59753
2.6083
2.6198
2.63228
2.64599
2.66124
2.67835
2.6977
2.71949
2.7441
2.77198
2.80363
2.83959
2.88046
2.92693
2.97974
3.03974
3.10788
3.18522
3.27302
3.37269
3.48593
3.61476
3.76164
3.92959
4.12242
4.34491
4.60309
4.90456
5.25847
5.67531
6.16796
6.7498
7.4366
8.2384
9.14725
10.1155
10.9825
11.3742
10.6515
8.62737
8.24711
13.6926
15.5941
5.28531
4.09796
3.66919
3.38244
3.15147
2.9612
2.80625
2.6822
2.58464
2.50933
2.45246
2.41065
2.38105
2.36125
2.34923
2.34335
2.34228
2.34491
2.35037
2.35795
2.36708
2.37731
2.38829
2.39974
2.41145
2.42325
2.43502
2.44668
2.45818
2.46946
2.48054
2.4914
2.50209
2.51264
2.52313
2.53365
2.54432
2.5553
2.56677
2.57897
2.59216
2.60662
2.62268
2.64069
2.66104
2.68394
2.70983
2.73916
2.77246
2.81029
2.85326
2.90209
2.95753
3.02045
3.09183
3.17276
3.26452
3.36859
3.48676
3.6212
3.7746
3.9504
4.15304
4.38832
4.66386
4.98942
5.37824
5.84692
6.41594
7.10922
7.9508
8.96518
10.1592
11.484
12.7314
13.3224
12.1106
9.75923
14.9076
16.2594
5.30922
4.00971
3.54683
3.24893
3.01605
2.82794
2.67714
2.55813
2.46591
2.39595
2.34423
2.30734
2.28238
2.26692
2.259
2.25698
2.25954
2.26562
2.27434
2.28501
2.29709
2.31012
2.32376
2.33773
2.35184
2.36591
2.37982
2.39351
2.4069
2.41996
2.43268
2.44506
2.45712
2.46889
2.48045
2.49187
2.50326
2.51475
2.52654
2.53884
2.55191
2.56604
2.58155
2.59879
2.61814
2.63986
2.66433
2.69198
2.72327
2.75873
2.79892
2.84448
2.89611
2.95458
3.02075
3.09559
3.1802
3.27586
3.38406
3.50662
3.64578
3.80441
3.98625
4.19628
4.44124
4.73041
5.07647
5.49696
6.01556
6.66353
7.48055
8.51348
9.80792
11.4026
13.2711
15.1599
16.0894
13.3909
17.002
17.2199
5.35024
3.94263
3.44249
3.13221
2.89773
2.7119
2.56498
2.45064
2.36333
2.29819
2.25109
2.21853
2.19763
2.18598
2.18163
2.18298
2.18874
2.19787
2.20952
2.223
2.23777
2.2534
2.26953
2.2859
2.30229
2.31856
2.33458
2.35026
2.36556
2.38043
2.39486
2.40885
2.4224
2.43557
2.4484
2.46096
2.47334
2.48567
2.49812
2.51092
2.52431
2.53858
2.55403
2.571
2.58986
2.61095
2.63459
2.66116
2.69109
2.72484
2.76294
2.80596
2.85452
2.90931
2.9711
3.04072
3.11911
3.20735
3.30667
3.41853
3.54473
3.68751
3.84978
4.03545
4.24989
4.50061
4.79824
5.1581
5.60227
6.16272
6.88529
7.83453
9.09717
10.7796
12.9938
15.8421
19.2141
22.1567
20.8693
18.4976
5.53306
3.91151
3.36311
3.03305
2.7953
2.61271
2.46982
2.35985
2.27697
2.21609
2.17298
2.14415
2.1267
2.11829
2.11699
2.12126
2.12983
2.14168
2.15597
2.17203
2.18931
2.20739
2.2259
2.24458
2.2632
2.28162
2.29971
2.31739
2.33461
2.35132
2.36751
2.38318
2.39834
2.41302
2.42728
2.44118
2.4548
2.46826
2.48172
2.49538
2.5095
2.52433
2.54018
2.55737
2.57626
2.59722
2.62057
2.64663
2.67578
2.70844
2.7451
2.78624
2.83243
2.88429
2.94246
3.00768
3.08077
3.16261
3.25423
3.35681
3.47171
3.60064
3.74572
3.90982
4.09681
4.31211
4.56348
4.8622
5.225
5.67712
6.25737
7.02634
8.07913
9.56471
11.7074
14.8651
19.5757
27.0238
41.9857
14.1388
5.46987
3.8986
3.30673
2.95414
2.70989
2.53016
2.39278
2.28736
2.2085
2.15128
2.11151
2.08572
2.07111
2.06538
2.06667
2.07345
2.08449
2.09879
2.11552
2.134
2.15368
2.17412
2.19494
2.21586
2.23666
2.25718
2.2773
2.29694
2.31604
2.33458
2.35252
2.36988
2.38666
2.4029
2.41866
2.43401
2.44904
2.46385
2.47857
2.49341
2.50859
2.52437
2.54103
2.55887
2.57823
2.5995
2.62302
2.64907
2.67798
2.71011
2.74589
2.78576
2.8302
2.87976
2.935
2.99655
3.06512
3.14147
3.22646
3.32104
3.42628
3.54343
3.67399
3.81992
3.98382
4.16928
4.3813
4.62703
4.91687
5.2663
5.69881
6.25115
6.98259
7.99156
9.44513
11.624
14.9975
20.3071
28.5751
10.4623
5.21068
3.85782
3.25545
2.89287
2.64404
2.46678
2.33537
2.2356
2.16092
2.10703
2.07006
2.04677
2.03447
2.03097
2.03446
2.04346
2.05675
2.07333
2.09237
2.11318
2.1352
2.15794
2.18102
2.2041
2.22697
2.24945
2.27144
2.29288
2.31371
2.33391
2.35345
2.37233
2.3906
2.40829
2.42547
2.44225
2.45872
2.47497
2.4911
2.50729
2.52376
2.54076
2.55854
2.57737
2.59758
2.61953
2.64363
2.67008
2.69918
2.73124
2.76662
2.80573
2.84895
2.89675
2.94961
3.00808
3.07275
3.1443
3.22348
3.3111
3.40802
3.51516
3.63352
3.76439
3.90948
4.07102
4.25196
4.45632
4.68965
4.95963
5.27687
5.656
6.11695
6.68601
7.39521
8.27719
9.35413
10.6121
11.9495
8.1696
4.88474
3.77511
3.20489
2.84966
2.60294
2.42772
2.30156
2.20848
2.13912
2.08903
2.0549
2.03393
2.02373
2.02226
2.0278
2.0389
2.05435
2.07313
2.0944
2.11747
2.14174
2.16669
2.19185
2.21686
2.24146
2.26551
2.28894
2.31172
2.33383
2.35523
2.37591
2.39589
2.41522
2.43398
2.45232
2.47034
2.48809
2.50564
2.5231
2.54064
2.55845
2.57676
2.59582
2.61586
2.63717
2.6601
2.68506
2.71223
2.74185
2.77417
2.80952
2.84829
2.8907
2.93716
2.98806
3.04385
3.10504
3.17224
3.24615
3.32753
3.41709
3.51554
3.62341
3.74159
3.87121
4.01366
4.17065
4.34419
4.537
4.75246
4.99456
5.26769
5.57631
5.92418
6.31328
6.7396
7.18648
7.6182
7.96693
6.6243
4.5735
3.67936
3.16918
2.83341
2.59559
2.42482
2.30218
2.21519
2.15303
2.10844
2.0781
2.05999
2.05221
2.05296
2.06066
2.07394
2.09151
2.11235
2.13565
2.16069
2.18687
2.21363
2.24038
2.26659
2.29201
2.3166
2.34038
2.36341
2.38572
2.40729
2.42811
2.44823
2.46781
2.48701
2.50596
2.52468
2.54324
2.56169
2.58014
2.59872
2.61763
2.63708
2.65731
2.67858
2.70114
2.72523
2.75125
2.77935
2.80971
2.84254
2.87809
2.91664
2.95845
3.0038
3.05299
3.10632
3.16418
3.22723
3.29621
3.37173
3.45445
3.54525
3.64371
3.75068
3.867
3.99362
4.13165
4.2818
4.44534
4.62376
4.81824
5.02935
5.25631
5.4961
5.74364
5.99077
6.22101
6.40882
6.53115
5.59321
4.30975
3.60901
3.16833
2.86177
2.63993
2.47859
2.3625
2.28163
2.22742
2.19034
2.16521
2.1509
2.14625
2.14966
2.15959
2.17469
2.19378
2.21592
2.24027
2.26614
2.29289
2.32005
2.34702
2.37262
2.39665
2.41939
2.44113
2.46218
2.48263
2.50236
2.5215
2.54024
2.55879
2.57725
2.59566
2.61406
2.6325
2.65101
2.66969
2.68865
2.70806
2.7281
2.74902
2.77111
2.79458
2.81974
2.84684
2.87582
2.9069
2.94024
2.97602
3.01444
3.05574
3.10011
3.14772
3.1987
3.25344
3.31279
3.37733
3.44747
3.52364
3.60627
3.69561
3.79207
3.89621
4.00878
4.1311
4.26222
4.403
4.5545
4.71685
4.88914
5.06919
5.25321
5.43499
5.60609
5.75519
5.86717
5.92705
4.96304
4.14606
3.61049
3.24183
2.97454
2.77942
2.63903
2.53907
2.46964
2.42342
2.39247
2.37226
2.36145
2.35883
2.36313
2.37302
2.3873
2.40489
2.42521
2.44741
2.47078
2.49465
2.51841
2.54119
2.56114
2.57884
2.59487
2.60988
2.62496
2.64022
2.65527
2.6702
2.68523
2.70057
2.71625
2.73229
2.74868
2.76547
2.78268
2.80036
2.81861
2.83753
2.85729
2.87808
2.90014
2.92377
2.94933
2.9768
3.00625
3.03775
3.07128
3.10693
3.14492
3.1854
3.22853
3.27441
3.3232
3.37521
3.43125
3.49157
3.55656
3.62655
3.70187
3.7828
3.8696
3.96259
4.06211
4.16858
4.28218
4.40333
4.5331
4.67219
4.8188
4.96854
5.11868
5.26465
5.40001
5.51619
5.6027
5.64949
4.67861
4.15062
3.75884
3.47431
3.26149
3.10469
2.99231
2.90904
2.84481
2.79668
2.76015
2.73504
2.71882
2.70995
2.70713
2.70933
2.71567
2.72531
2.73775
2.75223
2.76806
2.78445
2.80035
2.81502
2.82817
2.84006
2.85047
2.85948
2.8674
2.87476
2.88186
2.88897
2.8966
2.90561
2.91583
2.92696
2.93899
2.95202
2.96605
2.98109
2.99716
3.01431
3.03263
3.05226
3.07336
3.09621
3.12112
3.14791
3.17672
3.20749
3.24022
3.27503
3.31199
3.35108
3.39241
3.43622
3.48274
3.53243
3.58553
3.64178
3.70167
3.76553
3.83367
3.90634
3.98374
4.06602
4.15332
4.24592
4.34449
4.44972
4.56175
4.68008
4.80334
4.9293
5.05533
5.17783
5.29183
5.39075
5.46688
5.51283
4.72312
4.38627
4.12507
3.93289
3.7785
3.64753
3.53456
3.43975
3.36007
3.29354
3.24107
3.20112
3.1711
3.14914
3.1338
3.12394
3.11863
3.11713
3.11858
3.12232
3.12769
3.13408
3.14087
3.1479
3.15578
3.16365
3.17082
3.17662
3.18057
3.18288
3.18423
3.18504
3.18575
3.18696
3.18896
3.19201
3.19654
3.20326
3.21195
3.22243
3.23469
3.24865
3.2643
3.28167
3.30087
3.32208
3.34553
3.37064
3.39747
3.42608
3.45664
3.48919
3.52368
3.56015
3.59875
3.63963
3.683
3.72937
3.77842
3.83027
3.8852
3.94294
4.00384
4.06818
4.13614
4.20787
4.28371
4.36412
4.44956
4.54019
4.63584
4.73603
4.83975
4.94542
5.05092
5.15344
5.24922
5.33347
5.40069
5.44569
5.0381
4.83203
4.65867
4.50603
4.36907
4.24718
4.13866
4.0418
3.95518
3.87995
3.81761
3.76601
3.72346
3.6885
3.6599
3.63662
3.61783
3.60275
3.59071
3.58113
3.57346
3.56737
3.5627
3.55907
3.55632
3.55407
3.55191
3.54996
3.54832
3.54664
3.54477
3.54261
3.53997
3.53643
3.53257
3.52917
3.5269
3.52642
3.52806
3.53227
3.5394
3.54909
3.56111
3.57539
3.59197
3.61111
3.63189
3.65423
3.67811
3.70355
3.7306
3.75928
3.78967
3.82196
3.85624
3.89252
3.93087
3.97146
4.01446
4.06038
4.10887
4.15994
4.21377
4.2701
4.32898
4.3908
4.4559
4.52454
4.59696
4.67326
4.75328
4.83655
4.92227
5.00921
5.09576
5.17979
5.25854
5.32858
5.38604
5.4272
5.52321
5.37041
5.2317
5.10722
4.99252
4.88559
4.78573
4.69327
4.60848
4.53271
4.46545
4.40597
4.35355
4.30739
4.26665
4.23055
4.19845
4.16976
4.14395
4.12059
4.09938
4.07993
4.06198
4.04524
4.02957
4.01474
4.00104
3.98875
3.97763
3.96749
3.95823
3.94972
3.94185
3.9345
3.92771
3.92166
3.91652
3.91212
3.90917
3.90857
3.91114
3.91679
3.92518
3.9362
3.95002
3.96576
3.98288
4.00135
4.02115
4.04229
4.06478
4.08866
4.11396
4.14076
4.16916
4.19921
4.23099
4.26459
4.30017
4.33792
4.37791
4.42059
4.46567
4.51304
4.56282
4.6149
4.66899
4.72548
4.78467
4.84663
4.91119
4.97798
5.04637
5.11541
5.18389
5.25019
5.31233
5.36785
5.41406
5.44826
6.10159
5.97493
5.85856
5.75066
5.64967
5.55391
5.46229
5.37509
5.29397
5.21882
5.14919
5.0845
5.02476
4.96981
4.91919
4.87236
4.82889
4.78838
4.75046
4.71476
4.68099
4.64891
4.61829
4.58873
4.56049
4.53385
4.50924
4.48647
4.46547
4.44622
4.42869
4.41279
4.39845
4.38558
4.37418
4.36441
4.35647
4.35041
4.3464
4.34506
4.346
4.34934
4.35504
4.36348
4.37348
4.38459
4.39677
4.41003
4.42436
4.4398
4.45637
4.4741
4.49303
4.51322
4.53472
4.55758
4.58183
4.60752
4.63473
4.66352
4.69397
4.72617
4.76019
4.79633
4.83459
4.87459
4.9166
4.96069
5.00673
5.05444
5.10366
5.15428
5.20584
5.25761
5.30865
5.35779
5.40358
5.44431
5.47806
5.50292
6.78327
6.66372
6.55117
6.44768
6.35226
6.26117
6.17242
6.08549
6.00184
5.92249
5.84799
5.77818
5.71254
5.65075