/*--------------------------------*- C++ -*----------------------------------*\
| =========                 |                                                 |
| \\      /  F ield         | OpenFOAM: The Open Source CFD Toolbox           |
|  \\    /   O peration     | Version:  v2012                                 |
|   \\  /    A nd           | Website:  www.openfoam.com                      |
|    \\/     M anipulation  |                                                 |
\*---------------------------------------------------------------------------*/
FoamFile
{
    version     2.0;
    format      ascii;
    class       volScalarField;
    location    "466";
    object      p;
}
// * * * * * * * * * * * * * * * * * * * * * * * * * * * * * * * * * * * * * //

dimensions      [0 2 -2 0 0 0 0];


internalField   nonuniform List<scalar> 
6556
(
0.388941
0.388094
0.387642
0.387449
0.387367
0.387367
0.387449
0.387641
0.388093
0.38894
0.387971
0.387723
0.387506
0.38737
0.387304
0.387304
0.387369
0.387505
0.387721
0.387969
0.387311
0.387321
0.387237
0.38715
0.387107
0.387107
0.387149
0.387235
0.387319
0.38731
0.386916
0.386985
0.386939
0.386877
0.386849
0.386848
0.386875
0.386937
0.386982
0.386914
0.386598
0.386677
0.386647
0.386594
0.386572
0.386571
0.386592
0.386643
0.386673
0.386594
0.386291
0.386368
0.386347
0.386305
0.386285
0.386284
0.386301
0.386342
0.386362
0.386286
0.38599
0.386059
0.386039
0.386004
0.385987
0.385985
0.385999
0.386032
0.386051
0.385982
0.385695
0.385755
0.385732
0.3857
0.385684
0.385681
0.385693
0.385722
0.385742
0.385682
0.385403
0.385455
0.38543
0.385398
0.385381
0.385377
0.385387
0.385414
0.385436
0.385384
0.385113
0.385158
0.385131
0.385097
0.385079
0.385074
0.385082
0.385106
0.385129
0.385085
0.384825
0.384863
0.384833
0.384799
0.384779
0.38477
0.384775
0.384797
0.38482
0.384782
0.38454
0.384572
0.38454
0.384503
0.384479
0.384467
0.384468
0.384486
0.384508
0.384475
0.38426
0.384287
0.384252
0.384211
0.384181
0.384163
0.384158
0.384171
0.384191
0.384162
0.383988
0.38401
0.383971
0.383924
0.383885
0.383857
0.383844
0.38385
0.383867
0.383841
0.383728
0.383746
0.3837
0.383643
0.383591
0.383549
0.383523
0.383519
0.383532
0.383509
0.383488
0.3835
0.383445
0.383373
0.383301
0.383237
0.383192
0.383174
0.383181
0.383161
0.383274
0.383281
0.383212
0.383118
0.383014
0.382917
0.382841
0.382803
0.382805
0.382792
0.383102
0.383101
0.383013
0.382887
0.382741
0.382592
0.382465
0.38239
0.382392
0.382399
0.38299
0.382979
0.382865
0.382691
0.382481
0.382252
0.382033
0.381883
0.381885
0.382015
0.382964
0.382943
0.382795
0.382557
0.382252
0.3819
0.381534
0.381269
0.381268
0.381743
0.383058
0.383027
0.38284
0.382522
0.382093
0.381562
0.38092
0.380225
0.379424
0.375667
0.383316
0.38328
0.383051
0.38265
0.382096
0.381396
0.380489
0.379265
0.378584
0.380655
0.383786
0.383751
0.383485
0.383004
0.38233
0.381492
0.380467
0.378989
0.377128
0.37889
0.38452
0.38449
0.384188
0.383627
0.38283
0.381828
0.380641
0.378994
0.376158
0.376803
0.38557
0.385547
0.385208
0.384561
0.383631
0.382447
0.381049
0.379316
0.376193
0.376242
0.38699
0.386976
0.386595
0.385854
0.38478
0.383405
0.381769
0.379878
0.37648
0.375473
0.388841
0.388838
0.388408
0.387557
0.386319
0.384722
0.382798
0.38065
0.376991
0.374636
0.391191
0.391198
0.390711
0.389734
0.388301
0.386444
0.384172
0.381656
0.377821
0.374174
0.394116
0.394133
0.39358
0.392457
0.3908
0.388647
0.38598
0.382951
0.378843
0.374532
0.397701
0.39773
0.397101
0.395815
0.393908
0.391427
0.388355
0.384789
0.380261
0.375596
0.402042
0.402076
0.401369
0.3999
0.397716
0.394875
0.391384
0.387322
0.382341
0.377249
0.407252
0.407301
0.406489
0.404808
0.402312
0.399065
0.395096
0.390502
0.3851
0.37947
0.413442
0.413507
0.412562
0.410639
0.407786
0.404071
0.399543
0.39431
0.38844
0.382242
0.420717
0.420783
0.419697
0.417503
0.414242
0.40999
0.404819
0.398838
0.392303
0.385462
0.429211
0.429273
0.42803
0.425529
0.421807
0.416941
0.411029
0.404203
0.396789
0.389126
0.439073
0.43913
0.437707
0.434864
0.430625
0.42507
0.418308
0.410512
0.40204
0.393357
0.450449
0.450498
0.448878
0.44566
0.440857
0.434547
0.426841
0.417939
0.408247
0.398344
0.463479
0.463519
0.461686
0.458071
0.452672
0.445558
0.43684
0.426731
0.415673
0.404346
0.478291
0.478321
0.476268
0.472244
0.466233
0.458292
0.448528
0.437155
0.424634
0.411728
0.494988
0.495008
0.492729
0.488298
0.481681
0.47292
0.462115
0.449475
0.435461
0.420885
0.513631
0.513642
0.511137
0.50631
0.499114
0.489574
0.477778
0.463926
0.448461
0.432204
0.534231
0.534228
0.531497
0.526295
0.518566
0.508316
0.495625
0.480673
0.463875
0.446019
0.556727
0.556699
0.553742
0.548189
0.539985
0.529119
0.515664
0.499781
0.48184
0.462565
0.580989
0.580912
0.577722
0.571837
0.563221
0.551848
0.537786
0.521178
0.502346
0.481922
0.606798
0.60664
0.603196
0.596989
0.588017
0.576247
0.561746
0.544643
0.525208
0.503973
0.633832
0.633558
0.629827
0.623291
0.614009
0.601943
0.587167
0.5698
0.550063
0.528389
0.661687
0.66125
0.657184
0.650295
0.640733
0.628461
0.613559
0.596142
0.576391
0.554645
0.689868
0.689213
0.68475
0.67747
0.667645
0.655243
0.640347
0.62307
0.603559
0.582073
0.717792
0.716851
0.711917
0.704209
0.694143
0.681686
0.666918
0.649946
0.630887
0.609932
0.744769
0.743456
0.73799
0.729843
0.719587
0.707172
0.69266
0.676146
0.657716
0.637501
0.769966
0.768176
0.762174
0.75366
0.743328
0.731104
0.71701
0.701116
0.683472
0.664155
0.792353
0.790013
0.783605
0.774932
0.76475
0.752949
0.739491
0.724406
0.707702
0.689409
0.810357
0.807926
0.801479
0.792978
0.783303
0.772271
0.759744
0.745697
0.730099
0.71294
0.821751
0.820633
0.815121
0.807316
0.798621
0.788798
0.777554
0.764805
0.75049
0.734563
0.82635
0.826723
0.823513
0.817546
0.810549
0.802453
0.792878
0.781695
0.768828
0.75421
0.827427
0.828084
0.827052
0.82373
0.819162
0.813305
0.805766
0.796384
0.785085
0.77181
0.827409
0.82759
0.827526
0.826644
0.824816
0.82157
0.816398
0.809051
0.799424
0.787494
0.827312
0.826762
0.826815
0.827563
0.82815
0.827496
0.824809
0.81961
0.811694
0.801093
0.828043
0.826986
0.826848
0.828205
0.830491
0.832005
0.831391
0.827895
0.821352
0.811869
0.829223
0.828617
0.828655
0.830335
0.833308
0.836059
0.837224
0.835263
0.830178
0.822363
0.356479
0.359213
0.360947
0.362656
0.364122
0.365265
0.365952
0.366069
0.365709
0.364898
0.363696
0.362285
0.360755
0.359205
0.357814
0.356744
0.356075
0.35586
0.356137
0.356878
0.357964
0.35917
0.360177
0.360722
0.3609
0.364054
0.360611
0.360162
0.36104
0.362123
0.363107
0.363799
0.363998
0.36362
0.362756
0.361575
0.360224
0.358829
0.357511
0.356388
0.355544
0.355054
0.35496
0.355295
0.356042
0.357125
0.358399
0.359648
0.360525
0.360922
0.364274
0.361031
0.359955
0.360161
0.360802
0.361457
0.361913
0.36198
0.361584
0.360817
0.359799
0.358611
0.357374
0.356231
0.355289
0.354613
0.354244
0.354203
0.354499
0.355121
0.356023
0.357123
0.358301
0.359364
0.360098
0.362705
0.359922
0.358914
0.359036
0.359655
0.360274
0.360672
0.36069
0.360258
0.359476
0.358479
0.357336
0.356151
0.355069
0.354196
0.353587
0.353267
0.353241
0.353506
0.354043
0.35481
0.355735
0.356725
0.35769
0.35853
0.362913
0.358811
0.357336
0.357455
0.35825
0.358988
0.359463
0.359523
0.359125
0.358362
0.357361
0.356222
0.355066
0.354025
0.353195
0.352623
0.352325
0.352294
0.352519
0.352978
0.353632
0.354422
0.355261
0.356079
0.35691
0.363847
0.358424
0.356053
0.356038
0.356851
0.35768
0.358272
0.358424
0.358105
0.357392
0.356409
0.355281
0.354145
0.353134
0.352338
0.3518
0.351523
0.351489
0.351679
0.352069
0.352623
0.353292
0.354
0.354662
0.355363
0.364237
0.358541
0.355634
0.35527
0.35584
0.356642
0.357268
0.357504
0.357274
0.356622
0.355664
0.354551
0.353437
0.352457
0.351697
0.351193
0.350939
0.350908
0.351072
0.351404
0.351871
0.352428
0.35301
0.353519
0.354067
0.364382
0.359143
0.35614
0.355259
0.355451
0.356095
0.356674
0.35692
0.356736
0.356135
0.3552
0.3541
0.353005
0.352053
0.35133
0.35086
0.35063
0.350603
0.350749
0.351036
0.35143
0.351893
0.352367
0.35275
0.353163
0.365324
0.360335
0.35729
0.355996
0.355842
0.356254
0.356701
0.356855
0.356626
0.356052
0.355115
0.354006
0.352908
0.351966
0.351264
0.350819
0.350608
0.350589
0.350724
0.350978
0.351319
0.35171
0.352097
0.352386
0.352681
0.36714
0.362224
0.359106
0.357523
0.357072
0.357218
0.357464
0.357473
0.357129
0.356452
0.355484
0.354323
0.353184
0.352216
0.351509
0.351072
0.350872
0.35086
0.35099
0.351225
0.35153
0.351868
0.352186
0.352403
0.352603
0.369524
0.36467
0.361515
0.359743
0.359036
0.358918
0.358953
0.358819
0.35835
0.357504
0.356401
0.355106
0.353862
0.35281
0.352053
0.351594
0.351392
0.351386
0.351517
0.351745
0.352031
0.352336
0.352604
0.352766
0.352887
0.372281
0.367525
0.364357
0.36247
0.361569
0.361233
0.361061
0.360738
0.360136
0.359203
0.357936
0.356438
0.354986
0.353769
0.35289
0.352359
0.352127
0.35212
0.352258
0.352491
0.352775
0.353067
0.353305
0.353419
0.353459
0.375307
0.370584
0.367404
0.365457
0.364439
0.363953
0.363618
0.363141
0.362383
0.361327
0.359996
0.358405
0.356641
0.355144
0.354044
0.353362
0.353046
0.353014
0.353159
0.353402
0.353699
0.354002
0.354236
0.354295
0.354204
0.37851
0.373689
0.370454
0.368458
0.367369
0.366789
0.366357
0.365803
0.364983
0.363859
0.362451
0.360828
0.358968
0.357085
0.355612
0.35465
0.354164
0.354045
0.354166
0.354416
0.354734
0.355077
0.355377
0.355399
0.354888
0.381852
0.376756
0.373364
0.371265
0.370101
0.369459
0.36899
0.368434
0.367654
0.366613
0.365262
0.363612
0.361801
0.359816
0.357877
0.35644
0.35556
0.35523
0.355281
0.355507
0.35582
0.356184
0.356553
0.356621
0.355376
0.385459
0.379812
0.376051
0.373739
0.372451
0.371747
0.37126
0.370737
0.370061
0.369217
0.368118
0.366667
0.364934
0.363112
0.361121
0.359167
0.357659
0.3567
0.356383
0.356541
0.356839
0.357175
0.357572
0.358008
0.358534
0.389508
0.383012
0.378616
0.375909
0.37438
0.373548
0.373016
0.372519
0.37197
0.371346
0.370541
0.36945
0.368092
0.366544
0.364915
0.362996
0.361153
0.359567
0.358391
0.357736
0.357563
0.357859
0.358599
0.359787
0.36131
0.394249
0.386627
0.381326
0.377961
0.375999
0.374918
0.374279
0.373782
0.373326
0.372869
0.372327
0.371614
0.37075
0.369776
0.368664
0.367505
0.3664
0.365382
0.364272
0.363292
0.36268
0.362664
0.363365
0.365027
0.367927
0.400099
0.391036
0.384506
0.380186
0.377545
0.376033
0.375172
0.374619
0.374186
0.37382
0.373476
0.37311
0.372711
0.372322
0.372009
0.371823
0.37177
0.371872
0.372104
0.372434
0.373107
0.374208
0.375623
0.377885
0.381402
0.40752
0.396722
0.388611
0.382992
0.379367
0.37717
0.375891
0.375136
0.37466
0.374342
0.374111
0.373957
0.373902
0.373968
0.374204
0.374686
0.375466
0.37655
0.377918
0.379527
0.381367
0.383415
0.385637
0.388056
0.390689
0.41698
0.404215
0.394198
0.386917
0.381955
0.37876
0.376797
0.375629
0.374945
0.374564
0.374397
0.374393
0.374557
0.374908
0.375484
0.376355
0.377587
0.379192
0.381096
0.383217
0.385521
0.387971
0.390474
0.392909
0.395179
0.428924
0.414061
0.401873
0.392583
0.385915
0.381367
0.378402
0.37655
0.375446
0.374839
0.374582
0.374613
0.37491
0.375463
0.37627
0.377347
0.378748
0.380538
0.382663
0.384978
0.387401
0.389896
0.392389
0.394776
0.396951
0.443713
0.426749
0.412239
0.400656
0.391923
0.385647
0.381322
0.378462
0.376659
0.375607
0.375097
0.375006
0.375282
0.375907
0.376873
0.378164
0.379741
0.3816
0.383722
0.386003
0.388353
0.390726
0.393074
0.395327
0.397404
0.461554
0.442642
0.425808
0.411766
0.400676
0.392309
0.386242
0.382007
0.379172
0.377383
0.376376
0.375973
0.376073
0.376628
0.377628
0.379047
0.380768
0.382665
0.384699
0.386859
0.389086
0.391312
0.393493
0.395581
0.397519
0.482441
0.461889
0.442919
0.426421
0.412806
0.402055
0.393883
0.387886
0.383641
0.380767
0.378953
0.377969
0.377662
0.377963
0.378853
0.380222
0.381878
0.383696
0.385644
0.387712
0.389828
0.391925
0.393966
0.395911
0.397712
0.506118
0.484363
0.46363
0.444895
0.428777
0.415487
0.404928
0.396811
0.390767
0.386419
0.383431
0.381527
0.380508
0.38028
0.380781
0.381811
0.383185
0.384823
0.386671
0.388647
0.390662
0.392654
0.39458
0.396395
0.39808
0.532084
0.509638
0.487661
0.467116
0.448747
0.432973
0.419901
0.409405
0.401219
0.395012
0.390452
0.387234
0.385115
0.383994
0.383749
0.384172
0.385113
0.386442
0.388046
0.389823
0.39168
0.39354
0.395344
0.39705
0.398642
0.559641
0.537016
0.514385
0.492608
0.472459
0.454495
0.439011
0.426059
0.415516
0.407141
0.400646
0.395727
0.392103
0.389636
0.388294
0.387918
0.388219
0.389003
0.390153
0.391561
0.393126
0.394757
0.396379
0.397935
0.399414
0.587979
0.565626
0.542902
0.520522
0.499204
0.479556
0.462001
0.446753
0.433843
0.423156
0.414486
0.407573
0.402134
0.397951
0.395099
0.393572
0.39298
0.392987
0.393454
0.39429
0.395385
0.396631
0.397942
0.399251
0.40051
0.61629
0.594552
0.572192
0.549775
0.527914
0.507193
0.488089
0.470929
0.455877
0.442953
0.432061
0.423025
0.415618
0.409591
0.404891
0.401657
0.399772
0.39879
0.398381
0.398423
0.398821
0.399478
0.400302
0.401212
0.402143
0.64386
0.622961
0.601278
0.579246
0.557365
0.536151
0.516075
0.497515
0.480728
0.465847
0.45289
0.441782
0.432388
0.424525
0.418016
0.412847
0.409077
0.406559
0.405015
0.404129
0.403677
0.403573
0.403734
0.404068
0.404505
0.670139
0.650201
0.629365
0.607969
0.586417
0.56515
0.544598
0.525145
0.507095
0.490655
0.475937
0.462962
0.451681
0.441998
0.433788
0.426931
0.421329
0.416953
0.413713
0.411393
0.409798
0.408796
0.40821
0.407862
0.407686
0.694759
0.675827
0.655896
0.635237
0.614187
0.59312
0.572425
0.552469
0.533569
0.515974
0.499854
0.485305
0.472351
0.460965
0.451084
0.442622
0.435481
0.429538
0.424648
0.420741
0.417733
0.415449
0.413728
0.412445
0.411496
0.717507
0.699578
0.680531
0.660603
0.640083
0.619307
0.598631
0.578401
0.558936
0.540502
0.523304
0.507483
0.49312
0.48024
0.468827
0.458832
0.450184
0.442788
0.436538
0.431326
0.427013
0.423426
0.420488
0.418166
0.416337
0.738281
0.721307
0.703072
0.683799
0.66375
0.643239
0.622607
0.602192
0.582311
0.563238
0.545197
0.528357
0.512835
0.498693
0.485952
0.474596
0.464578
0.45583
0.448264
0.441778
0.436261
0.431595
0.427685
0.424439
0.421743
0.756985
0.740897
0.723369
0.704622
0.684922
0.664587
0.643953
0.62336
0.603126
0.583527
0.564799
0.547128
0.530654
0.515465
0.501608
0.489093
0.477896
0.467968
0.45924
0.451627
0.445033
0.439357
0.434497
0.430356
0.426834
0.773687
0.758339
0.741348
0.722962
0.703437
0.683097
0.662322
0.64148
0.620887
0.600814
0.581497
0.563131
0.545868
0.529815
0.515039
0.501565
0.489389
0.478478
0.468778
0.460216
0.45271
0.446166
0.44049
0.435589
0.431367
0.788231
0.773474
0.756801
0.738548
0.719058
0.69867
0.677738
0.656634
0.635697
0.615204
0.595388
0.576448
0.558544
0.541793
0.526273
0.512025
0.499057
0.487349
0.476858
0.467523
0.459269
0.452012
0.445663
0.440132
0.435329
0.799652
0.785188
0.76865
0.750441
0.730887
0.710359
0.689254
0.667922
0.64668
0.625812
0.605563
0.586141
0.567712
0.550403
0.534302
0.519459
0.505891
0.493585
0.482508
0.472605
0.463806
0.456034
0.449201
0.443218
0.43799
0.81132
0.79734
0.78102
0.7629
0.743302
0.722582
0.701167
0.67944
0.657733
0.636342
0.615526
0.5955
0.576437
0.558482
0.541736
0.526257
0.512069
0.499165
0.487517
0.477074
0.467771
0.459532
0.452274
0.445912
0.440362
0.352777
0.352636
0.35259
0.35885
0.358844
0.362704
0.363284
0.367905
0.375219
0.371729
0.37751
0.384177
0.385192
0.388571
0.391807
0.393184
0.395277
0.397078
0.397094
0.398677
0.400022
0.39873
0.400156
0.401344
0.399125
0.400514
0.401675
0.39915
0.400492
0.40164
0.399245
0.400521
0.40163
0.39952
0.40072
0.401768
0.399991
0.401103
0.402082
0.400683
0.401712
0.4026
0.401604
0.402538
0.403364
0.402983
0.403706
0.404363
0.40496
0.405389
0.4058
0.407644
0.407672
0.407736
0.410838
0.410385
0.410052
0.414964
0.413909
0.413021
0.419631
0.417941
0.416456
0.424029
0.421769
0.419786
0.427963
0.425201
0.422765
0.431433
0.428242
0.425409
0.433703
0.430207
0.427129
0.435742
0.431904
0.428574
0.424329
0.424287
0.424204
0.423924
0.423204
0.422018
0.420464
0.418653
0.416684
0.414639
0.412577
0.410541
0.408561
0.406654
0.404834
0.403107
0.401476
0.399942
0.398503
0.397159
0.395907
0.394743
0.393664
0.392668
0.391752
0.390914
0.390151
0.389462
0.388846
0.388302
0.38783
0.38743
0.387104
0.386852
0.386677
0.386581
0.386567
0.386643
0.386812
0.387076
0.387439
0.387907
0.388492
0.389203
0.390045
0.391023
0.392147
0.393423
0.394859
0.396461
0.398233
0.400177
0.40229
0.404568
0.406997
0.409558
0.41222
0.41494
0.41766
0.420304
0.422771
0.424907
0.426551
0.427605
0.428109
0.42807
0.427397
0.426175
0.424433
0.422101
0.419446
0.416832
0.414448
0.412616
0.411614
0.411664
0.412757
0.414428
0.415829
0.416458
0.424435
0.424329
0.424214
0.423776
0.422889
0.421623
0.420047
0.418254
0.416329
0.414339
0.412336
0.410357
0.40843
0.406571
0.404792
0.4031
0.401499
0.399989
0.398571
0.397242
0.396002
0.394847
0.393774
0.392782
0.391867
0.391027
0.390261
0.389566
0.388943
0.388388
0.387904
0.38749
0.387146
0.386874
0.386676
0.386555
0.386513
0.386551
0.386675
0.386891
0.387205
0.387622
0.388145
0.388781
0.389537
0.390422
0.391442
0.392603
0.39391
0.395368
0.396979
0.398744
0.40066
0.402721
0.404913
0.407218
0.409608
0.412044
0.414476
0.416838
0.419052
0.421008
0.422587
0.423727
0.424437
0.424692
0.424371
0.423298
0.421531
0.419245
0.416675
0.414179
0.412033
0.410426
0.409609
0.409747
0.410902
0.412833
0.414843
0.416031
0.424573
0.424212
0.42374
0.422975
0.421884
0.42053
0.418959
0.417232
0.415407
0.41353
0.411642
0.409772
0.407943
0.406172
0.40447
0.402844
0.4013
0.399839
0.398461
0.397168
0.395956
0.394825
0.393771
0.392794
0.391891
0.39106
0.390299
0.389606
0.388981
0.388423
0.387932
0.387508
0.387151
0.386862
0.386644
0.386498
0.386428
0.386435
0.386524
0.386698
0.386964
0.387325
0.387788
0.388357
0.389038
0.389838
0.390762
0.391817
0.393006
0.394334
0.395801
0.397409
0.399153
0.401026
0.403018
0.405109
0.407276
0.409484
0.41169
0.413843
0.415886
0.417751
0.419323
0.420488
0.421224
0.421508
0.421238
0.420346
0.418884
0.416954
0.414723
0.412495
0.410588
0.409205
0.408476
0.40847
0.409228
0.410654
0.412443
0.413947
0.424146
0.423514
0.422746
0.421766
0.420562
0.419172
0.417632
0.415984
0.414262
0.412501
0.41073
0.408973
0.407249
0.405574
0.403957
0.402408
0.400931
0.399529
0.398203
0.396954
0.395781
0.394682
0.393656
0.392701
0.391815
0.390997
0.390245
0.389558
0.388935
0.388375
0.387878
0.387443
0.387072
0.386766
0.386525
0.386352
0.38625
0.38622
0.386267
0.386394
0.386606
0.386907
0.387301
0.387795
0.388393
0.389101
0.389924
0.390868
0.391937
0.393135
0.394462
0.395921
0.397507
0.399215
0.401037
0.402956
0.404953
0.407
0.409062
0.411094
0.413053
0.414895
0.416546
0.417855
0.418699
0.41904
0.41884
0.418082
0.416838
0.415217
0.413317
0.411332
0.40956
0.408243
0.407508
0.407391
0.40787
0.408831
0.410099
0.411435
0.423006
0.422208
0.421327
0.420281
0.419047
0.417665
0.416171
0.414596
0.412966
0.411307
0.409642
0.40799
0.406368
0.404788
0.403261
0.401793
0.400389
0.399053
0.397786
0.396589
0.395461
0.394401
0.393409
0.392482
0.39162
0.390821
0.390083
0.389405
0.388787
0.388228
0.387728
0.387286
0.386903
0.386581
0.38632
0.386122
0.385989
0.385924
0.38593
0.38601
0.386169
0.386411
0.38674
0.38716
0.387677
0.388297
0.389023
0.389861
0.390815
0.391889
0.393085
0.394402
0.395841
0.397395
0.399059
0.400819
0.40266
0.404557
0.406482
0.408397
0.410259
0.41202
0.413617
0.414951
0.415909
0.416426
0.41646
0.415991
0.415082
0.413824
0.412274
0.410566
0.408968
0.407731
0.406993
0.406779
0.407046
0.407687
0.408511
0.409556
0.421405
0.420487
0.41957
0.41852
0.417308
0.41597
0.414541
0.413046
0.41151
0.409952
0.408392
0.406846
0.405326
0.403845
0.40241
0.401028
0.399703
0.398438
0.397236
0.396096
0.395019
0.394004
0.393051
0.392157
0.391323
0.390546
0.389825
0.38916
0.38855
0.387995
0.387493
0.387046
0.386653
0.386316
0.386035
0.385813
0.38565
0.38555
0.385516
0.38555
0.385657
0.38584
0.386104
0.386452
0.386889
0.387421
0.388052
0.388786
0.389628
0.390581
0.391648
0.392828
0.394123
0.395527
0.397036
0.398641
0.400326
0.402075
0.403862
0.405656
0.407421
0.40911
0.410666
0.412012
0.413075
0.41381
0.414166
0.414095
0.413608
0.412757
0.411584
0.410198
0.408835
0.407729
0.407021
0.406745
0.406852
0.407246
0.407723
0.408396
0.419364
0.41842
0.417526
0.416514
0.415361
0.414098
0.412755
0.411357
0.409924
0.408475
0.407024
0.405586
0.404173
0.402792
0.401453
0.400159
0.398917
0.397727
0.396593
0.395514
0.394491
0.393524
0.392612
0.391754
0.39095
0.390198
0.389497
0.388847
0.388246
0.387696
0.387195
0.386743
0.386341
0.38599
0.385691
0.385445
0.385254
0.38512
0.385047
0.385036
0.385092
0.385218
0.385418
0.385697
0.386058
0.386505
0.387044
0.387679
0.388414
0.389251
0.390194
0.391243
0.3924
0.393661
0.395022
0.396476
0.398013
0.399617
0.401269
0.402944
0.404612
0.406235
0.407769
0.409159
0.41035
0.411294
0.41194
0.412249
0.412206
0.411814
0.411092
0.410124
0.409092
0.408203
0.40759
0.407283
0.407248
0.40741
0.407619
0.407978
0.416957
0.41606
0.415236
0.414301
0.413243
0.412084
0.410852
0.409569
0.408253
0.406921
0.405587
0.404262
0.402957
0.40168
0.400438
0.399235
0.398076
0.396962
0.395897
0.39488
0.393913
0.392995
0.392126
0.391305
0.390531
0.389805
0.389124
0.388489
0.3879
0.387355
0.386855
0.3864
0.38599
0.385627
0.38531
0.385042
0.384824
0.384658
0.384547
0.384493
0.3845
0.384572
0.384713
0.384925
0.385214
0.385583
0.386036
0.386578
0.387213
0.387943
0.388772
0.3897
0.39073
0.391859
0.393086
0.394403
0.395804
0.397277
0.398806
0.400372
0.401952
0.403515
0.405028
0.406452
0.407745
0.408864
0.409769
0.410429
0.410818
0.41091
0.410701
0.410234
0.409626
0.409035
0.408571
0.408245
0.408087
0.408073
0.40809
0.408196
0.41428
0.413458
0.412729
0.41191
0.410985
0.409964
0.40887
0.407723
0.406541
0.405339
0.404129
0.402923
0.40173
0.400558
0.399413
0.3983
0.397223
0.396186
0.395188
0.394233
0.39332
0.39245
0.391623
0.390838
0.390095
0.389394
0.388733
0.388114
0.387535
0.386996
0.386497
0.38604
0.385622
0.385247
0.384914
0.384625
0.384382
0.384185
0.384039
0.383945
0.383908
0.383929
0.384014
0.384166
0.384388
0.384685
0.385061
0.385519
0.386064
0.386699
0.387426
0.388248
0.389166
0.39018
0.391289
0.392488
0.393772
0.395133
0.39656
0.398036
0.399545
0.401064
0.402566
0.404026
0.405412
0.406677
0.407796
0.408758
0.409523
0.410055
0.41034
0.410409
0.410279
0.410021
0.409707
0.409401
0.40916
0.409008
0.408872
0.408764
0.411327
0.410606
0.410011
0.40936
0.408617
0.407776
0.406854
0.40587
0.40484
0.40378
0.402702
0.401619
0.400539
0.399472
0.398423
0.397398
0.396402
0.395436
0.394504
0.393607
0.392746
0.391921
0.391133
0.390382
0.389668
0.38899
0.388348
0.387743
0.387174
0.38664
0.386143
0.385682
0.385259
0.384872
0.384524
0.384216
0.383949
0.383724
0.383545
0.383415
0.383335
0.383311
0.383345
0.383442
0.383606
0.383839
0.384146
0.384531
0.384998
0.38555
0.38619
0.386921
0.387745
0.388663
0.389674
0.390777
0.391967
0.39324
0.394587
0.395997
0.397456
0.398948
0.400452
0.401946
0.403408
0.404826
0.406164
0.407382
0.408425
0.409309
0.410044
0.410555
0.410878
0.410984
0.410833
0.41056
0.410255
0.409927
0.409629
0.409326
0.407954
0.40739
0.407033
0.406658
0.406174
0.405569
0.404859
0.404066
0.403207
0.4023
0.401361
0.400402
0.399435
0.398469
0.397512
0.39657
0.395648
0.394749
0.393877
0.393033
0.392218
0.391435
0.390682
0.389961
0.389272
0.388615
0.38799
0.387397
0.386836
0.386307
0.38581
0.385347
0.384916
0.384519
0.384157
0.383831
0.383542
0.383291
0.383082
0.382918
0.382801
0.382736
0.382725
0.382774
0.382885
0.383063
0.383311
0.383634
0.384035
0.384518
0.385086
0.385743
0.386491
0.387332
0.388267
0.389295
0.390415
0.391623
0.392914
0.394281
0.395714
0.397201
0.398725
0.400271
0.401819
0.403349
0.404839
0.406279
0.407657
0.408903
0.409962
0.41083
0.411505
0.411893
0.411954
0.411682
0.411266
0.410767
0.410153
0.409596
0.403832
0.403627
0.403714
0.403806
0.403711
0.40341
0.402956
0.40238
0.401707
0.400961
0.40016
0.399322
0.398462
0.39759
0.396717
0.39585
0.394994
0.394155
0.393335
0.392536
0.391762
0.391013
0.390291
0.389595
0.388927
0.388287
0.387675
0.387091
0.386537
0.386011
0.385514
0.385047
0.38461
0.384203
0.383828
0.383485
0.383175
0.382901
0.382664
0.382469
0.382318
0.382216
0.382166
0.382173
0.38224
0.382371
0.38257
0.382842
0.383189
0.383616
0.384127
0.384726
0.385415
0.386198
0.387076
0.38805
0.389121
0.390288
0.391547
0.392894
0.394323
0.395825
0.397388
0.399001
0.400647
0.402309
0.403969
0.405605
0.407201
0.408739
0.410183
0.411454
0.412462
0.413189
0.413491
0.413182
0.412467
0.411667
0.41062
0.409545
0.397932
0.398746
0.39989
0.400759
0.401256
0.401383
0.40123
0.400892
0.400411
0.399822
0.399153
0.398427
0.397662
0.396873
0.396072
0.395268
0.394468
0.393677
0.392899
0.392138
0.391396
0.390675
0.389976
0.389299
0.388647
0.38802
0.387417
0.38684
0.386289
0.385764
0.385265
0.384794
0.38435
0.383934
0.383546
0.383188
0.382859
0.382563
0.3823
0.382076
0.381895
0.381761
0.381678
0.381649
0.381679
0.381771
0.381931
0.382161
0.382465
0.382849
0.383317
0.383872
0.384518
0.38526
0.386099
0.387039
0.388081
0.389226
0.390473
0.391821
0.393266
0.394801
0.396421
0.398115
0.399872
0.401677
0.403513
0.405361
0.407198
0.408999
0.410731
0.412376
0.41386
0.415013
0.415803
0.415873
0.4149
0.413517
0.411215
0.408979
0.388978
0.393074
0.395817
0.397673
0.398903
0.399588
0.399801
0.399697
0.399394
0.398946
0.39839
0.397757
0.397069
0.396346
0.395601
0.394845
0.394086
0.393332
0.392585
0.391851
0.391132
0.39043
0.389747
0.389084
0.388442
0.387822
0.387225
0.386651
0.386101
0.385575
0.385073
0.384597
0.384146
0.38372
0.383321
0.382949
0.382604
0.382286
0.381996
0.381744
0.381537
0.381376
0.381265
0.381207
0.381207
0.381268
0.381396
0.381594
0.381867
0.382219
0.382655
0.383179
0.383797
0.384512
0.385328
0.38625
0.38728
0.38842
0.389673
0.391038
0.392514
0.3941
0.395791
0.397581
0.399461
0.40142
0.403445
0.40552
0.407623
0.409729
0.41181
0.413833
0.415742
0.417453
0.418864
0.419865
0.42036
0.419328
0.413985
0.406881
0.371136
0.385455
0.391404
0.394856
0.39691
0.398151
0.398765
0.398893
0.398729
0.398385
0.397911
0.397343
0.396707
0.396027
0.395318
0.394593
0.393861
0.393129
0.392401
0.391683
0.390977
0.390286
0.389611
0.388954
0.388317
0.387699
0.387103
0.386529
0.385978
0.385449
0.384944
0.384462
0.384003
0.383569
0.38316
0.382777
0.382416
0.382074
0.381758
0.381478
0.381245
0.381062
0.380929
0.380849
0.380825
0.380863
0.380967
0.381141
0.381391
0.381721
0.382136
0.382641
0.383242
0.383943
0.38475
0.385666
0.386697
0.387847
0.389118
0.390514
0.392035
0.393682
0.395454
0.397349
0.399361
0.401485
0.40371
0.406025
0.408415
0.41086
0.41334
0.415831
0.418307
0.420731
0.423064
0.425416
0.428032
0.429962
0.430741
0.434295
0.374787
0.384453
0.389964
0.393768
0.396046
0.397458
0.398266
0.398557
0.398474
0.398177
0.397739
0.397199
0.396585
0.395922
0.395227
0.394514
0.393792
0.393068
0.392347
0.391634
0.390932
0.390243
0.389569
0.388912
0.388273
0.387654
0.387055
0.386478
0.385923
0.38539
0.38488
0.384392
0.383927
0.383485
0.383067
0.382667
0.382284
0.381923
0.381592
0.381293
0.381033
0.380823
0.380671
0.380574
0.380535
0.380555
0.380642
0.3808
0.381035
0.381351
0.381754
0.38225
0.382844
0.383541
0.384348
0.385271
0.386314
0.387482
0.388782
0.390217
0.39179
0.393505
0.395364
0.397366
0.399512
0.4018
0.404226
0.406783
0.409465
0.412259
0.415156
0.418143
0.421213
0.424363
0.427624
0.431109
0.43493
0.439088
0.444564
0.453754
0.382919
0.388582
0.392309
0.395004
0.396711
0.397802
0.398461
0.398729
0.398648
0.398331
0.397875
0.397319
0.396693
0.396021
0.395318
0.394599
0.393871
0.393141
0.392416
0.391698
0.390991
0.390297
0.389618
0.388956
0.388311
0.387686
0.387082
0.3865
0.38594
0.385402
0.384887
0.384393
0.383922
0.383469
0.383032
0.382608
0.382207
0.381837
0.381499
0.381192
0.380917
0.380681
0.380499
0.380384
0.380332
0.380343
0.38042
0.380569
0.380795
0.381105
0.381503
0.381997
0.382592
0.383294
0.38411
0.385046
0.386108
0.387303
0.388637
0.390116
0.391744
0.393528
0.395472
0.397579
0.399852
0.402294
0.404906
0.407689
0.410642
0.413763
0.417053
0.42051
0.424137
0.427935
0.431944
0.436224
0.440742
0.445489
0.450868
0.457452
0.389555
0.393111
0.395578
0.397247
0.398306
0.398952
0.39929
0.399371
0.399204
0.398823
0.398298
0.397682
0.39701
0.396302
0.395572
0.39483
0.394084
0.393339
0.392599
0.391868
0.39115
0.390445
0.389756
0.389083
0.38843
0.387796
0.387185
0.386596
0.386031
0.38549
0.384971
0.384471
0.383986
0.38351
0.383047
0.382608
0.382201
0.381826
0.381483
0.381171
0.380892
0.380647
0.380444
0.380298
0.38022
0.380219
0.380293
0.38044
0.380666
0.380976
0.381377
0.381875
0.382477
0.38319
0.384021
0.384976
0.386063
0.387288
0.388659
0.390183
0.391867
0.393717
0.395739
0.39794
0.400325
0.402901
0.405674
0.40865
0.411836
0.415241
0.418865
0.422706
0.426752
0.430964
0.435338
0.439917
0.444677
0.449637
0.455114
0.46115
0.394691
0.396911
0.398495
0.399516
0.400124
0.400425
0.400485
0.400353
0.400047
0.399577
0.398962
0.398252
0.397503
0.39674
0.395969
0.395193
0.394419
0.393651
0.392891
0.392142
0.391407
0.390687
0.389984
0.3893
0.388635
0.387992
0.387371
0.386776
0.386207
0.385664
0.385136
0.384613
0.384098
0.3836
0.383128
0.382686
0.382276
0.381898
0.381552
0.381238
0.380958
0.380715
0.380511
0.38035
0.380246
0.380215
0.380265
0.38041
0.380642
0.380959
0.381369
0.381878
0.382493
0.383221
0.384071
0.38505
0.386164
0.387421
0.38883
0.390398
0.392133
0.394041
0.396132
0.398412
0.400889
0.403573
0.406474
0.409604
0.412974
0.416592
0.420421
0.424419
0.428597
0.432947
0.43743
0.442039
0.446833
0.451861
0.457159
0.462631
0.398687
0.400006
0.400933
0.401507
0.401797
0.401855
0.401724
0.40144
0.401027
0.400473
0.399767
0.398958
0.398124
0.397301
0.396483
0.395671
0.394865
0.39407
0.393286
0.392517
0.391763
0.391027
0.390309
0.389613
0.388937
0.388284
0.387655
0.387052
0.386477
0.385915
0.385356
0.384803
0.384271
0.383769
0.383295
0.382852
0.38244
0.38206
0.381713
0.3814
0.381122
0.380883
0.380685
0.380532
0.38043
0.380383
0.380408
0.380521
0.38073
0.381045
0.381469
0.381996
0.382629
0.38338
0.384255
0.385259
0.386401
0.387691
0.389137
0.390745
0.392524
0.394483
0.396629
0.398972
0.401519
0.404283
0.407277
0.410511
0.413966
0.417621
0.421476
0.425504
0.429696
0.434079
0.438642
0.443361
0.448232
0.453241
0.458346
0.463438
0.40118
0.402084
0.402677
0.403002
0.403105