/*--------------------------------*- C++ -*----------------------------------*\
| =========                 |                                                 |
| \\      /  F ield         | OpenFOAM: The Open Source CFD Toolbox           |
|  \\    /   O peration     | Version:  v2012                                 |
|   \\  /    A nd           | Website:  www.openfoam.com                      |
|    \\/     M anipulation  |                                                 |
\*---------------------------------------------------------------------------*/
FoamFile
{
    version     2.0;
    format      ascii;
    class       surfaceScalarField;
    location    "466";
    object      phi;
}
// * * * * * * * * * * * * * * * * * * * * * * * * * * * * * * * * * * * * * //

dimensions      [0 3 -1 0 0 0 0];
oriented        oriented;


internalField   nonuniform List<scalar> 
12848
(
8.15433e-08
0.000199918
5.25271e-08
0.000200029
3.0517e-08
0.000200022
1.4114e-08
0.000200016
3.65309e-11
0.000200014
-1.40461e-08
0.000200014
-3.04642e-08
0.000200016
-5.24994e-08
0.000200022
-8.15339e-08
0.000200029
0.000199918
1.26417e-07
0.000199792
1.09627e-07
0.000200046
7.27464e-08
0.000200059
3.55771e-08
0.000200054
1.09639e-10
0.00020005
-3.53726e-08
0.00020005
-7.25869e-08
0.000200054
-1.09542e-07
0.000200059
-1.26395e-07
0.000200046
0.000199792
1.27973e-07
0.000199664
1.27183e-07
0.000200047
9.15358e-08
0.000200095
4.67769e-08
0.000200098
2.05317e-10
0.000200096
-4.63856e-08
0.000200096
-9.11936e-08
0.000200098
-1.26906e-07
0.000200095
-1.27818e-07
0.000200047
0.000199664
1.2441e-07
0.00019954
1.28977e-07
0.000200042
9.67874e-08
0.000200127
5.093e-08
0.000200144
3.27425e-10
0.000200147
-5.0314e-08
0.000200147
-9.62845e-08
0.000200144
-1.28603e-07
0.000200127
-1.24199e-07
0.000200042
0.00019954
1.19765e-07
0.00019942
1.26157e-07
0.000200036
9.64747e-08
0.000200156
5.15706e-08
0.000200189
5.13631e-10
0.000200198
-5.05979e-08
0.000200198
-9.56508e-08
0.000200189
-1.25561e-07
0.000200157
-1.1943e-07
0.000200036
0.000199421
1.13828e-07
0.000199306
1.21222e-07
0.000200028
9.41739e-08
0.000200183
5.08214e-08
0.000200232
8.10119e-10
0.000200248
-4.92687e-08
0.000200248
-9.28185e-08
0.000200233
-1.2024e-07
0.000200184
-1.133e-07
0.000200029
0.000199307
1.07917e-07
0.000199198
1.15644e-07
0.000200021
9.04474e-08
0.000200209
4.92467e-08
0.000200274
1.22608e-09
0.000200296
-4.69096e-08
0.000200296
-8.8449e-08
0.000200275
-1.14161e-07
0.00020021
-1.07111e-07
0.000200022
0.0001992
1.02574e-07
0.000199096
1.10049e-07
0.000200013
8.62293e-08
0.000200232
4.73853e-08
0.000200312
1.83687e-09
0.000200341
-4.38888e-08
0.000200342
-8.32463e-08
0.000200314
-1.07843e-07
0.000200235
-1.01363e-07
0.000200016
0.000199099
9.80183e-08
0.000198998
1.05156e-07
0.000200006
8.2674e-08
0.000200255
4.59284e-08
0.000200349
2.76321e-09
0.000200385
-4.06631e-08
0.000200385
-7.81679e-08
0.000200351
-1.01843e-07
0.000200258
-9.61992e-08
0.00020001
0.000199003
9.43076e-08
0.000198903
1.01228e-07
0.000199999
8.00027e-08
0.000200276
4.51668e-08
0.000200384
4.15316e-09
0.000200426
-3.72516e-08
0.000200427
-7.32287e-08
0.000200387
-9.62497e-08
0.000200281
-9.15729e-08
0.000200005
0.000198911
9.1458e-08
0.000198812
9.84071e-08
0.000199992
7.83976e-08
0.000200296
4.53238e-08
0.000200417
6.2288e-09
0.000200465
-3.34543e-08
0.000200466
-6.82382e-08
0.000200422
-9.09259e-08
0.000200304
-8.73455e-08
0.000200002
0.000198824
8.95074e-08
0.000198722
9.68534e-08
0.000199985
7.81169e-08
0.000200315
4.6719e-08
0.000200449
9.33169e-09
0.000200502
-2.89401e-08
0.000200505
-6.28944e-08
0.000200456
-8.56024e-08
0.000200327
-8.33207e-08
0.0002
0.00019874
8.85814e-08
0.000198634
9.68469e-08
0.000199976
7.9556e-08
0.000200332
4.98309e-08
0.000200478
1.39798e-08
0.000200538
-2.32044e-08
0.000200542
-5.67483e-08
0.00020049
-7.99139e-08
0.00020035
-7.92681e-08
0.000199999
0.000198661
8.88469e-08
0.000198545
9.87143e-08
0.000199967
8.33182e-08
0.000200348
5.54107e-08
0.000200506
2.09681e-08
0.000200572
-1.54939e-08
0.000200578
-4.91647e-08
0.000200523
-7.33946e-08
0.000200374
-7.49256e-08
0.0002
0.000198586
9.051e-08
0.000198454
1.02856e-07
0.000199954
9.01605e-08
0.00020036
6.45367e-08
0.000200532
3.14806e-08
0.000200605
-4.70436e-09
0.000200614
-3.92625e-08
0.000200558
-6.54676e-08
0.0002004
-7.00233e-08
0.000200005
0.000198516
9.42241e-08
0.00019836
1.10606e-07
0.000199938
1.01679e-07
0.000200369
7.89479e-08
0.000200555
4.73526e-08
0.000200637
1.08358e-08
0.000200651
-2.57894e-08
0.000200595
-5.54844e-08
0.00020043
-6.43961e-08
0.000200014
0.000198452
1.00746e-07
0.000198259
1.233e-07
0.000199915
1.19696e-07
0.000200373
1.00768e-07
0.000200573
7.09163e-08
0.000200667
3.40906e-08
0.000200688
-6.43683e-09
0.000200635
-4.2523e-08
0.000200466
-5.84005e-08
0.00020003
0.000198393
1.11142e-07
0.000198148
1.43044e-07
0.000199883
1.47529e-07
0.000200368
1.34464e-07
0.000200587
1.07569e-07
0.000200694
6.87591e-08
0.000200727
2.10783e-08
0.000200683
-2.77675e-08
0.000200515
-5.53499e-08
0.000200057
0.000198338
1.26789e-07
0.000198021
1.72573e-07
0.000199838
1.89314e-07
0.000200352
1.86083e-07
0.00020059
1.64878e-07
0.000200715
1.24679e-07
0.000200767
6.77939e-08
0.00020074
2.17489e-09
0.000200581
-5.09725e-08
0.000200111
0.000198287
1.49253e-07
0.000197872
2.15262e-07
0.000199772
2.5043e-07
0.000200316
2.62824e-07
0.000200577
2.51909e-07
0.000200726
2.13349e-07
0.000200805
1.34097e-07
0.000200819
6.43932e-09
0.000200708
-1.76018e-07
0.000200293
0.000198111
1.80271e-07
0.000197692
2.75027e-07
0.000199677
3.37864e-07
0.000200254
3.7699e-07
0.000200538
3.92581e-07
0.00020071
3.83368e-07
0.000200815
3.48747e-07
0.000200853
2.89211e-07
0.000200768
5.15305e-07
0.000200067
0.000193833
4.7935e-06
2.21308e-07
0.000197471
3.54473e-07
0.000199544
4.553e-07
0.000200153
5.32751e-07
0.000200461
5.88165e-07
0.000200655
6.25439e-07
0.000200777
6.6648e-07
0.000200812
7.62434e-07
0.000200672
1.00827e-06
0.000199821
0.000191873
2.96821e-06
2.72601e-07
0.000197198
4.54151e-07
0.000199362
6.02733e-07
0.000200004
7.28155e-07
0.000200335
8.32692e-07
0.00020055
9.20033e-07
0.00020069
1.0068e-06
0.000200726
1.18415e-06
0.000200494
1.76139e-06
0.000199244
0.000188852
4.78269e-06
3.34538e-07
0.000196863
5.7468e-07
0.000199122
7.80813e-07
0.000199798
9.63546e-07
0.000200153
1.12663e-06
0.000200387
1.2776e-06
0.000200539
1.44549e-06
0.000200558
1.75192e-06
0.000200188
2.63002e-06
0.000198366
0.000185431
6.05104e-06
4.08e-07
0.000196455
7.17672e-07
0.000198812
9.9192e-07
0.000199524
1.24218e-06
0.000199902
1.47375e-06
0.000200156
1.69867e-06
0.000200314
1.95544e-06
0.000200301
2.37826e-06
0.000199765
3.43974e-06
0.000197304
0.000182007
6.86354e-06
4.94242e-07
0.000195961
8.85377e-07
0.000198421
1.23912e-06
0.00019917
1.56756e-06
0.000199574
1.877e-06
0.000199846
2.18247e-06
0.000200009
2.53006e-06
0.000199953
3.07302e-06
0.000199222
4.34975e-06
0.000196028
0.000178669
7.68757e-06
5.94879e-07
0.000195366
1.08087e-06
0.000197935
1.52696e-06
0.000198724
1.94596e-06
0.000199155
2.34516e-06
0.000199447
2.7428e-06
0.000199611
3.19243e-06
0.000199504
3.85933e-06
0.000198555
5.30936e-06
0.000194578
0.000175582
8.39637e-06
7.11954e-07
0.000194654
1.3082e-06
0.000197339
1.86172e-06
0.00019817
2.3863e-06
0.00019863
2.89045e-06
0.000198943
3.39586e-06
0.000199106
3.96341e-06
0.000198936
4.76201e-06
0.000197757
6.32878e-06
0.000193011
0.000172758
9.15304e-06
8.47837e-07
0.000193807
1.57195e-06
0.000196615
2.2504e-06
0.000197492
2.8983e-06
0.000197982
3.52578e-06
0.000198315
4.15849e-06
0.000198473
4.86711e-06
0.000198228
5.8331e-06
0.000196791
7.53617e-06
0.000191308
0.000170207
1.0087e-05
1.00487e-06
0.000192802
1.87672e-06
0.000195743
2.69997e-06
0.000196669
3.49082e-06
0.000197192
4.26142e-06
0.000197545
5.04102e-06
0.000197693
5.90717e-06
0.000197362
7.04891e-06
0.000195649
8.88373e-06
0.000189473
0.000167934
1.11568e-05
1.18818e-06
0.000191614
2.2274e-06
0.000194704
3.21716e-06
0.000195679
4.17188e-06
0.000196237
5.10523e-06
0.000196611
6.04857e-06
0.00019675
7.08059e-06
0.000196329
8.38271e-06
0.000194347
1.0297e-05
0.000187559
0.000165982
1.22493e-05
1.39689e-06
0.000190217
2.63166e-06
0.000193469
3.81056e-06
0.0001945
4.95172e-06
0.000195096
6.0686e-06
0.000195495
7.19298e-06
0.000195626
8.40134e-06
0.000195121
9.85685e-06
0.000192891
1.18193e-05
0.000185596
0.00016434
1.34614e-05
1.63303e-06
0.000188584
3.09636e-06
0.000192006
4.49144e-06
0.000193105
5.84446e-06
0.000193743
7.16862e-06
0.00019417
8.49437e-06
0.0001943
9.89296e-06
0.000193723
1.15038e-05
0.000191281
1.34841e-05
0.000183616
0.000163002
1.48219e-05
1.90591e-06
0.000186678
3.62714e-06
0.000190284
5.27081e-06
0.000191461
6.86598e-06
0.000192148
8.42588e-06
0.00019261
9.97784e-06
0.000192748
1.15831e-05
0.000192117
1.33507e-05
0.000189513
1.53164e-05
0.00018165
0.000161933
1.63855e-05
2.21868e-06
0.000184459
4.23317e-06
0.00018827
6.1612e-06
0.000189533
8.03365e-06
0.000190275
9.8632e-06
0.000190781
1.16726e-05
0.000190938
1.3509e-05
0.000190281
1.54446e-05
0.000187577
1.73872e-05
0.000179708
0.000161084
1.82359e-05
2.57491e-06
0.000181884
4.9238e-06
0.000185921
7.17614e-06
0.000187281
9.36579e-06
0.000188085
1.15045e-05
0.000188642
1.36094e-05
0.000188834
1.57114e-05
0.000188179
1.78363e-05
0.000185452
1.97789e-05
0.000177765
0.000160397
2.04662e-05
2.97863e-06
0.000178905
5.70734e-06
0.000183192
8.32818e-06
0.00018466
1.08795e-05
0.000185534
1.33725e-05
0.000186149
1.58178e-05
0.000186388
1.82276e-05
0.000185769
2.05758e-05
0.000183104
2.25694e-05
0.000175771
0.000159793
2.31732e-05
3.43311e-06
0.000175472
6.59036e-06
0.000180035
9.62715e-06
0.000181623
1.25883e-05
0.000182573
1.5485e-05
0.000183252
1.83215e-05
0.000183552
2.109e-05
0.000183001
2.37146e-05
0.000180479
2.5835e-05
0.000173651
0.000159167
2.6461e-05
3.94028e-06
0.000171532
7.57682e-06
0.000176399
1.10789e-05
0.000178121
1.44997e-05
0.000179152
1.7852e-05
0.0001799
2.11342e-05
0.00018027
2.43194e-05
0.000179815
2.72893e-05
0.00017751
2.96332e-05
0.000171307
0.000158393
3.0407e-05
4.50049e-06
0.000167032
8.66755e-06
0.000172231
1.26841e-05
0.000174105
1.66139e-05
0.000175222
2.04732e-05
0.000176041
2.42563e-05
0.000176487
2.79203e-05
0.000176151
3.13133e-05
0.000174117
3.3993e-05
0.000168627
0.000157325
3.50612e-05
5.11258e-06
0.000161919
9.85986e-06
0.000167484
1.44378e-05
0.000169527
1.89226e-05
0.000170738
2.33366e-05
0.000171627
2.76723e-05
0.000172151
3.18756e-05
0.000171948
3.57726e-05
0.00017022
3.89086e-05
0.000165492
0.000155801
4.04326e-05
5.77375e-06
0.000156145
1.11477e-05
0.00016211
1.63292e-05
0.000164345
2.14089e-05
0.000165658
2.64176e-05
0.000166618
3.13498e-05
0.000167219
3.61461e-05
0.000167152
4.06228e-05
0.000165743
4.43325e-05
0.000161782
0.000153656
4.64773e-05
6.48242e-06
0.000149663
1.25219e-05
0.000156071
1.83424e-05
0.000158525
2.4048e-05
0.000159952
2.96806e-05
0.000160985
3.52406e-05
0.000161659
4.06698e-05
0.000161723
4.57879e-05
0.000160625
5.01731e-05
0.000157397
0.000150738
5.30906e-05
7.23782e-06
0.000142425
1.39729e-05
0.000149336
2.04584e-05
0.000152039
2.68096e-05
0.000153601
3.30812e-05
0.000154714
3.92834e-05
0.000155456
4.53662e-05
0.00015564
5.11644e-05
0.000154827
5.62979e-05
0.000152263
0.000146928
6.01085e-05
8.03687e-06
0.000134388
1.54922e-05
0.00014188
2.26578e-05
0.000144874
2.96607e-05
0.000146598
3.657e-05
0.000147805
4.34091e-05
0.000148617
5.01424e-05
0.000148907
5.66292e-05
0.00014834
6.25439e-05
0.000146348
0.000142154
6.73176e-05
8.87694e-06
0.000125511
1.70732e-05
0.000133684
2.4923e-05
0.000137024
3.25694e-05
0.000138952
4.00973e-05
0.000140277
4.75468e-05
0.000141168
5.49014e-05
0.000141552
6.20516e-05
0.000141189
6.87339e-05
0.000139666
0.00013641
7.44778e-05
9.75891e-06
0.000115752
1.87124e-05
0.000124731
2.72397e-05
0.000128497
3.55063e-05
0.000130685
4.36161e-05
0.000132167
5.16289e-05
0.000133155
5.95505e-05
0.000133631
6.73065e-05
0.000133434
7.46967e-05
0.000132276
0.000129755
8.13517e-05
1.06885e-05
0.000105064
2.04118e-05
0.000115007
2.95982e-05
0.00011931
3.84462e-05
0.000121837
4.70843e-05
0.000123529
5.55946e-05
0.000124645
6.40076e-05
0.000125217
7.22844e-05
0.000125157
8.0285e-05
0.000124275
0.000122305
8.77353e-05
1.1678e-05
9.33858e-05
2.21788e-05
0.000104506
3.19912e-05
0.000109498
4.13651e-05
0.000112463
5.04615e-05
0.000114432
5.93885e-05
0.000115718
6.82022e-05
0.000116404
7.68972e-05
0.000116462
8.53865e-05
0.000115786
0.000114213
9.3479e-05
1.2749e-05
8.06368e-05
2.40216e-05
9.32339e-05
3.44066e-05
9.91128e-05
4.42316e-05
0.000102638
5.37013e-05
0.000104963
6.29531e-05
0.000106466
7.20691e-05
0.000107288
8.10735e-05
0.000107457
8.99228e-05
0.000106937
0.000105643
9.84926e-05
1.3954e-05
6.66828e-05
2.59351e-05
8.12528e-05
3.68081e-05
8.82398e-05
4.69897e-05
9.24566e-05
5.67344e-05
9.52179e-05
6.62137e-05
9.69866e-05
7.55347e-05
9.79667e-05
8.47459e-05
9.8246e-05
9.38366e-05
9.78461e-05
9.67476e-05
0.000102732
1.53303e-05
5.13525e-05
2.78708e-05
6.87123e-05
3.91011e-05
7.70095e-05
4.95256e-05
8.20321e-05
5.94415e-05
8.5302e-05
6.90543e-05
8.73738e-05
7.84944e-05
8.85267e-05
8.78283e-05
8.89121e-05
9.70672e-05
8.86073e-05
8.76464e-05
0.000106168
1.65552e-05
3.47973e-05
2.96996e-05
5.55679e-05
4.11326e-05
6.55766e-05
5.16422e-05
7.15224e-05
6.16167e-05
7.53276e-05
7.12835e-05
7.7707e-05
8.07816e-05
7.90285e-05
9.01857e-05
7.9508e-05
9.95176e-05
7.92754e-05
7.84109e-05
0.000108753
1.61343e-05
1.8663e-05
3.05288e-05
4.11734e-05
4.24353e-05
5.36701e-05
5.30129e-05
6.09448e-05
6.29623e-05
6.53782e-05
7.26189e-05
6.80503e-05
8.21417e-05
6.95058e-05
9.16022e-05
7.00474e-05
0.00010102
6.98574e-05
6.90555e-05
0.000110376
1.28337e-05
5.8293e-06
2.82626e-05
2.57444e-05
4.14163e-05
4.05164e-05
5.26411e-05
4.97201e-05
6.28366e-05
5.51826e-05
7.25875e-05
5.82995e-05
8.21854e-05
5.99079e-05
9.17487e-05
6.04841e-05
0.000101305
6.03016e-05
5.95314e-05
0.000110829
8.16377e-06
-2.33446e-06
2.231e-05
1.15982e-05
3.63237e-05
2.65028e-05
4.87676e-05
3.72761e-05
5.98813e-05
4.4069e-05
7.02136e-05
4.79672e-05
8.01971e-05
4.99244e-05
9.00704e-05
5.06108e-05
9.99196e-05
5.04525e-05
4.97102e-05
0.000109741
4.87959e-06
-7.21405e-06
1.47788e-05
1.699e-06
2.73896e-05
1.38919e-05
4.02497e-05
2.4416e-05
5.24469e-05
3.18718e-05
6.39064e-05
3.65077e-05
7.48538e-05
3.8977e-05
8.55127e-05
3.99519e-05
9.60098e-05
3.99553e-05
3.93164e-05
0.000106404
2.20718e-06
-9.42124e-06
7.43496e-06
-3.52878e-06
1.63609e-05
4.96595e-06
2.75396e-05
1.32374e-05
3.9709e-05
1.97024e-05
5.20972e-05
2.41196e-05
6.43538e-05
2.67203e-05
7.63565e-05
2.79492e-05
8.80711e-05
2.82407e-05
2.78426e-05
9.95448e-05
-2.14862e-06
-7.27262e-06
-1.05215e-06
-4.62525e-06
3.92106e-06
-7.26115e-09
1.21203e-05
5.03816e-06
2.28823e-05
8.94031e-06
3.52314e-05
1.17704e-05
4.84397e-05
1.35121e-05
6.18245e-05
1.45644e-05
7.50108e-05
1.50544e-05
1.48439e-05
8.80095e-05
-7.27262e-06
-1.18979e-05
-1.19051e-05
-6.86696e-06
2.07334e-06
1.38438e-05
2.73559e-05
4.19203e-05
5.69747e-05
7.18186e-05
-2.75638e-05
3.23573e-05
-2.68591e-05
-7.04754e-07
-2.36102e-05
-3.24883e-06
-1.94735e-05
-4.13676e-06
-1.46143e-05
-4.85923e-06
-9.33975e-06
-5.2745e-06
-3.91789e-06
-5.42186e-06
1.43912e-06
-5.35701e-06
6.62812e-06
-5.189e-06
1.16291e-05
-5.00095e-06
1.63067e-05
-4.67768e-06
2.04389e-05
-4.13221e-06
2.38358e-05
-3.39682e-06
2.64227e-05
-2.58692e-06
2.8159e-05
-1.73631e-06
2.90561e-05
-8.97178e-07
2.90495e-05
6.5996e-09
2.80706e-05
9.78973e-07
2.60547e-05
2.01587e-06
2.29428e-05
3.11189e-06
1.87157e-05
4.22713e-06
1.34827e-05
5.23291e-06
7.77925e-06
5.70348e-06
2.75974e-06
5.01954e-06
2.75974e-06
-1.35903e-05
4.89158e-05
-1.90271e-05
4.73204e-06
-1.88683e-05
-3.4076e-06
-1.68153e-05
-6.18981e-06
-1.37035e-05
-7.971e-06
-9.82185e-06
-9.15615e-06
-5.40619e-06
-9.83752e-06
-7.06114e-07
-1.00571e-05
3.94916e-06
-9.84428e-06
8.29259e-06
-9.34437e-06
1.22052e-05
-8.59034e-06
1.56146e-05
-7.54161e-06
1.84617e-05
-6.24387e-06
2.06855e-05
-4.81076e-06
2.22659e-05
-3.31672e-06
2.31692e-05
-1.80047e-06
2.34297e-05
-2.53861e-07
2.30661e-05
1.34257e-06
2.20651e-05
3.01684e-06
2.03883e-05
4.78866e-06
1.79725e-05
6.64292e-06
1.47337e-05
8.47173e-06
1.05285e-05
9.90866e-06
5.45088e-06
1.00972e-05
8.21063e-06
-8.30134e-06
6.19999e-05
-1.48347e-05
1.12654e-05
-1.64273e-05
-1.81494e-06
-1.56158e-05
-7.00134e-06
-1.3436e-05
-1.01508e-05
-1.03497e-05
-1.22425e-05
-6.68231e-06
-1.35049e-05
-2.68925e-06
-1.40501e-05
1.43954e-06
-1.39731e-05
5.4025e-06
-1.33073e-05
8.934e-06
-1.21218e-05
1.19473e-05
-1.0555e-05
1.44259e-05
-8.72245e-06
1.63453e-05
-6.73013e-06
1.76919e-05
-4.66331e-06
1.84648e-05
-2.57339e-06
1.86859e-05
-4.74997e-07
1.83833e-05
1.64517e-06
1.75836e-05
3.81652e-06
1.63034e-05
6.06892e-06
1.4535e-05
8.41133e-06
1.22216e-05
1.07851e-05
9.19816e-06
1.29321e-05
5.20213e-06
1.40932e-05
1.34128e-05
-6.09977e-06
7.41507e-05
-1.36485e-05
1.88141e-05
-1.61671e-05
7.03669e-07
-1.59878e-05
-7.18069e-06
-1.42744e-05
-1.18642e-05
-1.16056e-05
-1.49113e-05
-8.34005e-06
-1.67704e-05
-4.74881e-06
-1.76414e-05
-1.04606e-06
-1.76758e-05
2.5368e-06
-1.68902e-05
5.78049e-06
-1.53655e-05
8.55281e-06
-1.33273e-05
1.08079e-05
-1.09776e-05
1.25258e-05
-8.44799e-06
1.37083e-05
-5.84587e-06
1.43782e-05
-3.24326e-06
1.45702e-05
-6.66969e-07
1.43229e-05
1.89251e-06
1.3671e-05
4.46837e-06
1.26418e-05
7.09815e-06
1.12488e-05
9.80434e-06
9.47521e-06
1.25586e-05
7.2289e-06
1.51784e-05
4.24797e-06
1.70742e-05
1.76607e-05
-3.58295e-06
8.45972e-05
-1.25923e-05
2.78235e-05
-1.62695e-05
4.38083e-06
-1.67939e-05
-6.65632e-06
-1.55389e-05
-1.31191e-05
-1.32279e-05
-1.72223e-05
-1.02815e-05
-1.97169e-05
-7.00083e-06
-2.0922e-05
-3.65202e-06
-2.10246e-05
-4.18766e-07
-2.01234e-05
2.56569e-06
-1.835e-05
5.16309e-06
-1.59247e-05
7.27092e-06
-1.30854e-05
8.8535e-06
-1.00306e-05
9.92944e-06
-6.92181e-06
1.0545e-05
-3.85886e-06
1.07533e-05
-8.75256e-07
1.06013e-05
2.04449e-06
1.01263e-05
4.9434e-06
9.35536e-06
7.86908e-06
8.30473e-06
1.0855e-05
6.97173e-06
1.38916e-05
5.30128e-06
1.68489e-05
3.05981e-06
1.93156e-05
2.07205e-05
-7.7687e-07
9.30616e-05
-1.03727e-05
3.74193e-05
-1.53987e-05
9.40684e-06
-1.69559e-05
-5.09913e-06
-1.64316e-05
-1.36434e-05
-1.46841e-05
-1.89698e-05
-1.22119e-05
-2.21891e-05
-9.33708e-06
-2.37968e-05
-6.31907e-06
-2.40426e-05
-3.35068e-06
-2.30918e-05
-5.83677e-07
-2.1117e-05
1.83804e-06
-1.83464e-05
3.80266e-06
-1.505e-05
5.27187e-06
-1.14998e-05
6.27334e-06
-7.92328e-06
6.87072e-06
-4.45624e-06
7.13166e-06
-1.1362e-06
7.10951e-06
2.06664e-06
6.84085e-06
5.21206e-06
6.34881e-06
8.36111e-06
5.64602e-06
1.15577e-05
4.73193e-06
1.48057e-05
3.57177e-06
1.8009e-05
2.01257e-06
2.08748e-05
2.27331e-05
1.70048e-06
9.97575e-05
-7.2903e-06
4.64101e-05
-1.32702e-05
1.53868e-05
-1.59996e-05
-2.36974e-06
-1.65065e-05
-1.31365e-05
-1.56012e-05
-1.98752e-05
-1.38087e-05
-2.39816e-05
-1.14848e-05
-2.61207e-05
-8.89243e-06
-2.6635e-05
-6.23644e-06
-2.57478e-05
-3.69958e-06
-2.36538e-05
-1.44754e-06
-2.05984e-05
3.96178e-07
-1.68938e-05
1.78289e-06
-1.28865e-05
2.7433e-06
-8.8837e-06
3.3552e-06
-5.06815e-06
3.69913e-06
-1.48013e-06
3.83272e-06
1.93304e-06
3.79048e-06
5.25429e-06
3.59142e-06
8.56017e-06
3.2454e-06
1.19038e-05
2.75352e-06
1.52976e-05
2.09541e-06
1.86671e-05
1.18373e-06
2.17865e-05
2.39168e-05
3.87851e-06
0.000105032
-4.16463e-06
5.44533e-05
-1.05147e-05
2.17369e-05
-1.42578e-05
1.37336e-06
-1.5856e-05
-1.15383e-05
-1.59257e-05
-1.98055e-05
-1.49634e-05
-2.49439e-05
-1.33342e-05
-2.77499e-05
-1.13058e-05
-2.86634e-05
-9.05778e-06
-2.79958e-05
-6.78767e-06
-2.5924e-05
-4.69355e-06
-2.26926e-05
-2.93378e-06
-1.86535e-05
-1.58481e-06
-1.42355e-05
-6.2544e-07
-9.84307e-06
3.10196e-08
-5.72461e-06
4.78799e-07
-1.92791e-06
7.81863e-07
1.62998e-06
9.73771e-07
5.06238e-06
1.07029e-06
8.46365e-06
1.07933e-06
1.18947e-05
1.00278e-06
1.53741e-05
8.25814e-07
1.88441e-05
4.95047e-07
2.21172e-05
2.44119e-05
5.83494e-06
0.000109284
-1.32695e-06
6.16152e-05
-7.6945e-06
2.81044e-05
-1.21334e-05
5.81222e-06
-1.46828e-05
-8.98887e-06
-1.5738e-05
-1.87503e-05
-1.57011e-05
-2.49808e-05
-1.48884e-05
-2.85625e-05
-1.3571e-05
-2.99809e-05
-1.18391e-05
-2.97277e-05
-9.88312e-06
-2.788e-05
-7.93192e-06
-2.46438e-05
-6.19841e-06
-2.0387e-05
-4.81864e-06
-1.56152e-05
-3.80522e-06
-1.08565e-05
-3.0719e-06
-6.45794e-06
-2.50704e-06
-2.49277e-06
-2.03277e-06
1.15571e-06
-1.61176e-06
4.64137e-06
-1.22924e-06
8.08112e-06
-8.792e-07
1.15447e-05
-5.61359e-07
1.50563e-05
-2.91866e-07
1.85746e-05
-1.10337e-07
2.19357e-05
2.43015e-05
7.66676e-06
0.000112774
1.265e-06
6.80169e-05
-4.98736e-06
3.43568e-05
-9.89971e-06
1.07246e-05
-1.32674e-05
-5.6212e-06
-1.52793e-05
-1.67384e-05
-1.62199e-05
-2.40402e-05
-1.63141e-05
-2.84684e-05
-1.57497e-05
-3.05452e-05
-1.46441e-05
-3.08333e-05
-1.30676e-05
-2.94564e-05
-1.12621e-05
-2.64493e-05
-9.48641e-06
-2.21627e-05
-7.97066e-06
-1.7131e-05
-6.81182e-06
-1.20153e-05
-5.95125e-06
-7.31852e-06
-5.25335e-06
-3.19066e-06
-4.61069e-06
5.13046e-07
-3.97228e-06
4.00296e-06
-3.32006e-06
7.4289e-06
-2.6489e-06
1.08735e-05
-1.96168e-06
1.4369e-05
-1.27939e-06
1.78923e-05
-6.42429e-07
2.12987e-05
2.36591e-05
9.35663e-06
0.000115667
3.61828e-06
7.37553e-05
-2.46351e-06
4.04386e-05
-7.70616e-06
1.59672e-05
-1.17607e-05
-1.56667e-06
-1.46537e-05
-1.38454e-05
-1.6556e-05
-2.21379e-05
-1.76286e-05
-2.73957e-05
-1.78978e-05
-3.0276e-05
-1.7505e-05
-3.12261e-05
-1.64427e-05
-3.05187e-05
-1.48459e-05
-2.80461e-05
-1.29887e-05
-2.402e-05
-1.12051e-05
-1.89146e-05
-9.74544e-06
-1.3475e-05
-8.65379e-06
-8.41018e-06
-7.78247e-06
-4.06198e-06
-6.96733e-06
-3.02099e-07
-6.12263e-06
3.15826e-06
-5.21822e-06
6.52448e-06
-4.24619e-06
9.90148e-06
-3.2118e-06
1.33347e-05
-2.14675e-06
1.68273e-05
-1.11168e-06
2.02637e-05
2.25474e-05
1.0994e-05
0.000118134
5.77877e-06
7.89705e-05
-1.3833e-07
4.63557e-05
-5.6243e-06
2.14532e-05
-1.0254e-05
3.06305e-06
-1.39362e-05
-1.01632e-05
-1.67383e-05
-1.93358e-05
-1.87548e-05
-2.53793e-05
-2.00028e-05
-2.90279e-05
-2.04727e-05
-3.07563e-05
-2.00857e-05
-3.09057e-05
-1.88661e-05
-2.92657e-05
-1.69984e-05
-2.58877e-05
-1.48548e-05
-2.10582e-05
-1.28709e-05
-1.54589e-05
-1.13251e-05
-9.95593e-06
-1.01628e-05
-5.22429e-06
-9.13932e-06
-1.32562e-06
-8.088e-06
2.10694e-06
-6.94506e-06
5.38154e-06
-5.68896e-06
8.64538e-06
-4.32055e-06
1.19662e-05
-2.87895e-06
1.53857e-05
-1.46104e-06
1.88458e-05
2.10864e-05
1.26235e-05
0.000120333
7.80655e-06
8.37875e-05
2.02776e-06
5.21345e-05
-3.65618e-06
2.71371e-05
-8.77845e-06
8.18532e-06
-1.3169e-05
-5.77269e-06
-1.68104e-05
-1.56943e-05
-1.97364e-05
-2.24533e-05
-2.19556e-05
-2.68088e-05
-2.33946e-05
-2.93173e-05
-2.39786e-05
-3.03217e-05
-2.34277e-05
-2.98166e-05
-2.18138e-05
-2.75016e-05
-1.9415e-05
-2.3457e-05
-1.6738e-05
-1.81358e-05
-1.4359e-05
-1.2335e-05
-1.25875e-05
-6.99578e-06
-1.12169e-05
-2.69618e-06
-9.9171e-06
8.07131e-07
-8.53131e-06
3.99575e-06
-6.99533e-06
7.10941e-06
-5.28294e-06
1.02539e-05
-3.4027e-06
1.35054e-05
-1.49893e-06
1.6942e-05
1.95875e-05
1.43414e-05
0.000122377
9.8065e-06
8.83224e-05
4.12647e-06
5.78145e-05
-1.73435e-06
3.29979e-05
-7.28301e-06
1.3734e-05
-1.2301e-05
-7.54709e-07
-1.67086e-05
-1.12867e-05
-2.04933e-05
-1.86685e-05
-2.36357e-05
-2.36665e-05
-2.60682e-05
-2.68847e-05
-2.77215e-05
-2.86684e-05
-2.83113e-05
-2.92268e-05
-2.74723e-05
-2.83406e-05
-2.53098e-05
-2.56195e-05
-2.21654e-05
-2.12802e-05
-1.8691e-05
-1.58094e-05
-1.56924e-05
-9.99438e-06
-1.34966e-05
-4.89201e-06
-1.17535e-05
-9.35956e-07
-1.00664e-05
2.30867e-06
-8.236e-06
5.27903e-06
-6.16578e-06
8.18364e-06
-3.79979e-06
1.11394e-05
-1.18064e-06
1.43229e-05
1.84068e-05
1.62723e-05
0.00012434
1.19256e-05
9.26691e-05
6.30388e-06
6.34363e-05
2.82557e-07
3.90193e-05
-5.6286e-06
1.96451e-05
-1.11797e-05
4.79644e-06
-1.62558e-05
-6.21071e-06
-2.08185e-05
-1.41058e-05
-2.4841e-05
-1.96439e-05
-2.82512e-05
-2.34745e-05
-3.09476e-05
-2.5972e-05
-3.28396e-05
-2.73348e-05
-3.34776e-05
-2.77026e-05
-3.23921e-05
-2.67051e-05
-2.97228e-05
-2.39495e-05
-2.57422e-05
-1.97901e-05
-2.12317e-05
-1.45049e-05
-1.7256e-05
-8.86772e-06
-1.42694e-05
-3.92258e-06
-1.18701e-05
-9.06167e-08
-9.50695e-06
2.91591e-06
-6.79237e-06
5.46906e-06
-3.37559e-06
7.72265e-06
1.71815e-06
9.22914e-06
8.4393e-06
1.16857e-05
1.85472e-05
0.000126259
1.43232e-05
9.6893e-05
8.73102e-06
6.90284e-05
2.57901e-06
4.51713e-05
-3.62362e-06
2.58478e-05
-9.60054e-06
1.07734e-05
-1.52152e-05
-5.96035e-07
-2.04151e-05
-8.90586e-06
-2.51891e-05
-1.48699e-05
-2.94908e-05
-1.91729e-05
-3.32429e-05
-2.22199e-05
-3.63304e-05
-2.42473e-05
-3.86151e-05
-2.54179e-05
-3.95231e-05
-2.5797e-05
-3.85761e-05
-2.48965e-05
-3.58103e-05
-2.2556e-05
-3.13362e-05
-1.89789e-05
-2.58675e-05
-1.43364e-05
-2.0546e-05
-9.2441e-06
-1.60968e-05
-4.53983e-06
-1.24007e-05
-7.80198e-07
-8.93734e-06
2.0057e-06
-5.31901e-06
4.10432e-06
-1.94482e-06
5.85495e-06
8.37368e-06
-1.87919e-06
2.13051e-05
0.000128127
1.71845e-05
0.000101014
1.1616e-05
7.4597e-05
5.36424e-06
5.1423e-05
-1.06055e-06
3.22726e-05
-7.3552e-06
1.7068e-05
-1.33577e-05
5.40645e-06
-1.90083e-05
-3.25523e-06
-2.43283e-05
-9.54994e-06
-2.93415e-05
-1.41597e-05
-3.39646e-05
-1.75969e-05
-3.81146e-05
-2.00973e-05
-4.17057e-05
-2.18268e-05
-4.46134e-05
-2.28893e-05
-4.62565e-05
-2.32534e-05
-4.6305e-05
-2.25074e-05
-4.44538e-05
-2.08302e-05
-4.07856e-05
-1.80046e-05
-3.59209e-05
-1.41088e-05
-3.07164e-05
-9.7444e-06
-2.61474e-05
-5.34918e-06
-2.32395e-05
-9.02216e-07
-2.29068e-05
3.77167e-06
-2.62701e-05
9.21825e-06
1.63861e-05
-3.42826e-05
2.46907e-05
0.000129898
2.06926e-05
0.000105012
1.51718e-05
8.01178e-05
8.85775e-06
5.77371e-05
2.27238e-06
3.88579e-05
-4.25505e-06
2.35954e-05
-1.05317e-05
1.16831e-05
-1.6473e-05
2.68603e-06
-2.20942e-05
-3.92875e-06
-2.74866e-05
-8.76729e-06
-3.2657e-05
-1.24264e-05
-3.75261e-05
-1.52282e-05
-4.204e-05
-1.73129e-05
-4.61697e-05
-1.87596e-05
-4.9815e-05
-1.96081e-05
-5.25515e-05
-1.97709e-05
-5.42932e-05
-1.90885e-05
-5.49031e-05
-1.73947e-05
-5.44208e-05
-1.4591e-05
-5.33758e-05
-1.07894e-05
-5.24869e-05
-6.23812e-06
-5.23748e-05
-1.01426e-06
-5.36165e-05
5.01333e-06
-5.60317e-05
1.16334e-05
1.85053e-05
-5.81509e-05
2.88214e-05
0.000131483
2.50056e-05
0.000108827
1.95864e-05
8.55371e-05
1.32647e-05
6.40587e-05
6.57904e-06
4.55436e-05
-1.14848e-07
3.02893e-05
-6.59371e-06
1.8162e-05
-1.27346e-05
8.82687e-06
-1.84967e-05
1.83345e-06
-2.39367e-05
-3.32731e-06
-2.91817e-05
-7.18145e-06
-3.42606e-05
-1.01493e-05
-3.91392e-05
-1.24344e-05
-4.37963e-05
-1.41024e-05
-4.82258e-05
-1.51786e-05
-5.23716e-05
-1.56251e-05
-5.60912e-05
-1.53689e-05
-5.91755e-05
-1.43104e-05
-6.14444e-05
-1.23222e-05
-6.28767e-05
-9.35705e-06
-6.36639e-05
-5.451e-06
-6.39379e-05
-7.40177e-07
-6.34614e-05
4.53676e-06
-6.19097e-05
1.00817e-05
1.5301e-05
-5.87054e-05
3.37873e-05
0.000132757
3.0259e-05
0.000112356
2.50302e-05
9.07659e-05
1.87803e-05
7.03087e-05
1.20675e-05
5.22563e-05
5.28094e-06
3.70759e-05
-1.32462e-06
2.47675e-05
-7.59131e-06
1.50936e-05
-1.34455e-05
7.68765e-06
-1.88811e-05
2.10828e-06
-2.39744e-05
-2.08819e-06
-2.88315e-05
-5.29214e-06
-3.35136e-05
-7.7523e-06
-3.80214e-05
-9.59466e-06
-4.23429e-05
-1.0857e-05
-4.64417e-05
-1.15263e-05
-5.02368e-05
-1.15738e-05
-5.36113e-05
-1.09359e-05
-5.64085e-05
-9.52501e-06
-5.84573e-05
-7.30822e-06
-5.95526e-05
-4.35573e-06
-5.9473e-05
-8.1979e-07
-5.80199e-05
3.08364e-06
-5.49803e-05
7.04217e-06
1.06024e-05
-5.02817e-05
3.96308e-05
0.000133559
3.65413e-05
0.000115445
3.16363e-05
9.56709e-05
2.55707e-05
7.63743e-05
1.89241e-05
5.89029e-05
1.21245e-05
4.38755e-05
5.46223e-06
3.14298e-05
-8.7436e-07
2.14302e-05
-6.78009e-06
1.35934e-05
-1.22257e-05
7.55391e-06
-1.72389e-05
2.92502e-06
-2.18921e-05
-6.3894e-07
-2.62465e-05
-3.39796e-06
-3.03311e-05
-5.51005e-06
-3.41472e-05
-7.04097e-06
-3.76736e-05
-7.99986e-06
-4.08645e-05
-8.3829e-06
-4.36323e-05
-8.16809e-06
-4.58517e-05
-7.30555e-06
-4.73689e-05
-5.79109e-06
-4.80023e-05
-3.72234e-06
-4.75747e-05
-1.24739e-06
-4.5953e-05
1.462e-06
-4.31198e-05
4.20895e-06
6.77131e-06
-3.92887e-05
4.633e-05
0.000133706
4.38715e-05
0.000117904
3.94718e-05
0.000100071
3.37462e-05
8.20999e-05
2.72898e-05
6.53593e-05
2.05708e-05
5.05946e-05
1.39207e-05
3.80799e-05
7.559e-06
2.77918e-05
1.61843e-06
1.9534e-05
-3.84485e-06
1.30172e-05
-8.83531e-06
7.91548e-06
-1.33935e-05
3.91929e-06
-1.75657e-05
7.74236e-07
-2.13796e-05
-1.69615e-06
-2.48293e-05
-3.59134e-06
-2.78831e-05
-4.94604e-06
-3.05069e-05
-5.7591e-06
-3.26621e-05
-6.01291e-06
-3.4283e-05
-5.68461e-06
-3.52888e-05
-4.78527e-06
-3.55921e-05
-3.4191e-06
-3.51136e-05
-1.72582e-06
-3.38183e-05
1.66641e-07
-3.17463e-05
2.13697e-06
4.06693e-06
-2.90419e-05
5.37857e-05
0.000133011
5.21787e-05
0.000119511
4.85126e-05
0.000103737
4.33339e-05
8.72787e-05
3.72371e-05
7.1456e-05
3.07253e-05
5.71064e-05
2.41737e-05
4.46315e-05
1.784e-05
3.41255e-05
1.18852e-05
2.54888e-05
6.39134e-06
1.85111e-05
1.37823e-06
1.29286e-05
-3.17447e-06
8.47198e-06
-7.30105e-06
4.90082e-06
-1.10234e-05
2.02621e-06
-1.43351e-05
-2.79613e-07
-1.72058e-05
-2.07538e-06
-1.96079e-05
-3.35696e-06
-2.15228e-05
-4.09803e-06
-2.29304e-05
-4.27708e-06
-2.37987e-05
-3.91688e-06
-2.40903e-05
-3.12756e-06
-2.37811e-05
-2.03499e-06
-2.28726e-05
-7.41895e-07
-2.14029e-05
6.6729e-07
2.11355e-06
-1.94495e-05
6.18144e-05
0.000131305
6.12854e-05
0.00012004
5.86156e-05
0.000106406
5.42447e-05
9.16496e-05
4.87355e-05
7.69653e-05
4.26118e-05
6.32301e-05
3.62901e-05
5.09532e-05
3.00709e-05
4.03447e-05
2.41511e-05
3.14085e-05
1.86423e-05
2.40199e-05
1.35879e-05
1.79829e-05
8.98575e-06
1.30741e-05
4.81262e-06
9.07395e-06
1.05328e-06
5.78555e-06
-2.28149e-06
3.05515e-06
-5.16417e-06
8.07304e-07
-7.58694e-06
-9.34184e-07
-9.55269e-06
-2.13228e-06
-1.10532e-05
-2.77658e-06
-1.20572e-05
-2.91288e-06
-1.2544e-05
-2.64077e-06
-1.25157e-05
-2.06325e-06
-1.19873e-05
-1.27027e-06
-1.09908e-05
-3.29227e-07
7.00012e-07
-9.57728e-06
7.01562e-05
0.000128467
7.09034e-05
0.000119292
6.94991e-05
0.000107811
6.62381e-05
9.49106e-05
6.16076e-05
8.15958e-05
5.61228e-05
6.87148e-05
5.02303e-05
5.68458e-05
4.42727e-05
4.63022e-05
3.84899e-05
3.71914e-05
3.30302e-05
2.94796e-05
2.79672e-05
2.30459e-05
2.33192e-05
1.77222e-05
1.90745e-05
1.33186e-05
1.52248e-05