/*--------------------------------*- C++ -*----------------------------------*\
| =========                 |                                                 |
| \\      /  F ield         | OpenFOAM: The Open Source CFD Toolbox           |
|  \\    /   O peration     | Version:  v2012                                 |
|   \\  /    A nd           | Website:  www.openfoam.com                      |
|    \\/     M anipulation  |                                                 |
\*---------------------------------------------------------------------------*/
FoamFile
{
    version     2.0;
    format      ascii;
    class       volVectorField;
    location    "466";
    object      U;
}
// * * * * * * * * * * * * * * * * * * * * * * * * * * * * * * * * * * * * * //

dimensions      [0 1 -1 0 0 0 0];


internalField   nonuniform List<vector> 
6556
(
(0.000106787 -0.999646 0)
(0.000270517 -1.00005 0)
(0.000178553 -1.00003 0)
(8.97632e-05 -1.00002 0)
(2.74951e-05 -1.00002 0)
(-2.72089e-05 -1.00002 0)
(-8.95154e-05 -1.00002 0)
(-0.000178383 -1.00003 0)
(-0.000270468 -1.00005 0)
(-0.000106764 -0.999646 0)
(0.000407584 -0.999254 0)
(0.000500278 -1.0002 0)
(0.000368816 -1.00019 0)
(0.000215451 -1.00015 0)
(7.04303e-05 -1.00013 0)
(-6.9561e-05 -1.00013 0)
(-0.000214701 -1.00015 0)
(-0.000368261 -1.00019 0)
(-0.00050022 -1.0002 0)
(-0.000407453 -0.999254 0)
(0.000499495 -0.998677 0)
(0.000551556 -1.00024 0)
(0.000443205 -1.00038 0)
(0.000279998 -1.00037 0)
(9.48438e-05 -1.00035 0)
(-9.32042e-05 -1.00035 0)
(-0.00027852 -1.00037 0)
(-0.000442022 -1.00038 0)
(-0.000550492 -1.00024 0)
(-0.000499239 -0.998677 0)
(0.000508523 -0.998024 0)
(0.000545702 -1.00023 0)
(0.000459842 -1.00056 0)
(0.000303901 -1.00061 0)
(0.000105116 -1.0006 0)
(-0.00010251 -1.0006 0)
(-0.000301575 -1.00061 0)
(-0.000458228 -1.00056 0)
(-0.000544371 -1.00023 0)
(-0.00050797 -0.998026 0)
(0.000493621 -0.997394 0)
(0.000529265 -1.0002 0)
(0.000454423 -1.00071 0)
(0.000306574 -1.00084 0)
(0.000107796 -1.00086 0)
(-0.00010369 -1.00086 0)
(-0.000302958 -1.00084 0)
(-0.000451564 -1.00071 0)
(-0.000527307 -1.0002 0)
(-0.000492718 -0.997397 0)
(0.000470498 -0.996807 0)
(0.000502559 -1.00016 0)
(0.000443697 -1.00085 0)
(0.000300334 -1.00106 0)
(0.000107086 -1.00112 0)
(-0.000100623 -1.00112 0)
(-0.000294515 -1.00106 0)
(-0.000438732 -1.00086 0)
(-0.000499613 -1.00016 0)
(-0.000469045 -0.996811 0)
(0.000446174 -0.996254 0)
(0.000475051 -1.00012 0)
(0.000426855 -1.00098 0)
(0.000289686 -1.00127 0)
(0.000104694 -1.00136 0)
(-9.49306e-05 -1.00136 0)
(-0.000280873 -1.00127 0)
(-0.000419758 -1.00099 0)
(-0.000470434 -1.00013 0)
(-0.000443928 -0.996262 0)
(0.000423369 -0.995729 0)
(0.000450672 -1.00008 0)
(0.000406355 -1.0011 0)
(0.000277636 -1.00147 0)
(0.000102114 -1.0016 0)
(-8.74829e-05 -1.0016 0)
(-0.000264423 -1.00147 0)
(-0.000395932 -1.00111 0)
(-0.000443659 -1.00009 0)
(-0.000420022 -0.995742 0)
(0.000403112 -0.995228 0)
(0.000429813 -1.00005 0)
(0.000388775 -1.00122 0)
(0.000267273 -1.00166 0)
(0.000100892 -1.00182 0)
(-7.88797e-05 -1.00182 0)
(-0.000247377 -1.00167 0)
(-0.000372992 -1.00123 0)
(-0.000419314 -1.00006 0)
(-0.000398147 -0.995248 0)
(0.000385863 -0.994748 0)
(0.000412864 -1.00001 0)
(0.000375186 -1.00133 0)
(0.000259948 -1.00184 0)
(0.000102007 -1.00203 0)
(-6.89211e-05 -1.00203 0)
(-0.000230057 -1.00185 0)
(-0.000351428 -1.00135 0)
(-0.00039711 -1.00004 0)
(-0.000378471 -0.994779 0)
(0.000371761 -0.994284 0)
(0.000400205 -0.999978 0)
(0.000366082 -1.00143 0)
(0.000256605 -1.00201 0)
(0.000106417 -1.00223 0)
(-5.67911e-05 -1.00223 0)
(-0.000211809 -1.00203 0)
(-0.000330403 -1.00146 0)
(-0.000376501 -1.00002 0)
(-0.000360768 -0.994332 0)
(0.00036085 -0.993833 0)
(0.000392237 -0.999942 0)
(0.000362282 -1.00153 0)
(0.000258446 -1.00217 0)
(0.000115471 -1.00242 0)
(-4.11276e-05 -1.00243 0)
(-0.0001914 -1.0022 0)
(-0.000308689 -1.00158 0)
(-0.000356541 -1 0)
(-0.000344519 -0.993906 0)
(0.000353311 -0.993389 0)
(0.000389766 -0.999904 0)
(0.000365199 -1.00162 0)
(0.000267229 -1.00232 0)
(0.000131202 -1.0026 0)
(-1.98453e-05 -1.00262 0)
(-0.000166915 -1.00236 0)
(-0.000284627 -1.00169 0)
(-0.000335965 -0.999995 0)
(-0.000329053 -0.993499 0)
(0.000349523 -0.992946 0)
(0.000393673 -0.999859 0)
(0.000376621 -1.0017 0)
(0.000285865 -1.00246 0)
(0.000156737 -1.00278 0)
(1.0213e-05 -1.0028 0)
(-0.000135538 -1.00253 0)
(-0.000255999 -1.00181 0)
(-0.000313238 -0.999996 0)
(-0.000313627 -0.993113 0)
(0.000350035 -0.9925 0)
(0.00040526 -0.999805 0)
(0.000398274 -1.00177 0)
(0.000318484 -1.0026 0)
(0.000196715 -1.00295 0)
(5.37355e-05 -1.00298 0)
(-9.32264e-05 -1.0027 0)
(-0.000219874 -1.00193 0)
(-0.000286595 -1.00001 0)
(-0.000297543 -0.99275 0)
(0.000356055 -0.99204 0)
(0.000428196 -0.999735 0)
(0.000437304 -1.00183 0)
(0.000371142 -1.00272 0)
(0.000258456 -1.00311 0)
(0.000117939 -1.00316 0)
(-3.39662e-05 -1.00288 0)
(-0.000172437 -1.00207 0)
(-0.000254423 -1.00004 0)
(-0.000280447 -0.992413 0)
(0.00036923 -0.991556 0)
(0.000467126 -0.99964 0)
(0.000499607 -1.00186 0)
(0.00045291 -1.00282 0)
(0.00034923 -1.00326 0)
(0.000214006 -1.00335 0)
(5.43996e-05 -1.00307 0)
(-0.000107903 -1.00223 0)
(-0.000214889 -1.0001 0)
(-0.00026423 -0.992106 0)
(0.000391859 -0.99103 0)
(0.000528572 -0.999507 0)
(0.000595472 -1.00186 0)
(0.000578102 -1.00291 0)
(0.000493653 -1.00341 0)
(0.000360133 -1.00353 0)
(0.000181793 -1.00329 0)
(-2.21781e-05 -1.00244 0)
(-0.000179434 -1.00021 0)
(-0.000257085 -0.991815 0)
(0.000426874 -0.990441 0)
(0.000620867 -0.999318 0)
(0.00073944 -1.00181 0)
(0.000765981 -1.00295 0)
(0.000718602 -1.00353 0)
(0.000592349 -1.00373 0)
(0.000389212 -1.00354 0)
(0.000125542 -1.00271 0)
(-0.000109562 -1.00037 0)
(-0.000185529 -0.991524 0)
(0.000477597 -0.989759 0)
(0.00075369 -0.999046 0)
(0.000948651 -1.00169 0)
(0.00104486 -1.00294 0)
(0.00105202 -1.00362 0)
(0.000954443 -1.00393 0)
(0.000720848 -1.00387 0)
(0.000298256 -1.00317 0)
(-0.000344647 -1.00108 0)
(-0.000645719 -0.993723 0)
(0.00054865 -0.988945 0)
(0.000937672 -0.998655 0)
(0.00124357 -1.00146 0)
(0.00144954 -1.00282 0)
(0.00156251 -1.00362 0)
(0.00158031 -1.00409 0)
(0.00147214 -1.00426 0)
(0.00133594 -1.00378 0)
(0.00206814 -1.00118 0)
(0.00877435 -0.980696 0)
(0.000646302 -0.987953 0)
(0.0011799 -0.998097 0)
(0.00163648 -1.00106 0)
(0.00199449 -1.00255 0)
(0.00226341 -1.00346 0)
(0.00245854 -1.00404 0)
(0.00257899 -1.00423 0)
(0.00249163 -1.00374 0)
(0.00272846 -0.999985 0)
(0.0158694 -0.964674 0)
(0.00076951 -0.986731 0)
(0.00148273 -0.997323 0)
(0.00212984 -1.00045 0)
(0.0026783 -1.00205 0)
(0.00313662 -1.00308 0)
(0.00353094 -1.00374 0)
(0.00390786 -1.00394 0)
(0.00413937 -1.00307 0)
(0.00382432 -0.997889 0)
(0.0199138 -0.951501 0)
(0.000918766 -0.985227 0)
(0.00184848 -0.996281 0)
(0.00272654 -0.999577 0)
(0.00350467 -1.00129 0)
(0.0041914 -1.00242 0)
(0.00481616 -1.00315 0)
(0.00548668 -1.0033 0)
(0.00632624 -1.00186 0)
(0.00597386 -0.99439 0)
(0.0237762 -0.936293 0)
(0.00109592 -0.983385 0)
(0.00228223 -0.99492 0)
(0.00343428 -0.998389 0)
(0.00448364 -1.00022 0)
(0.00544166 -1.00144 0)
(0.00633665 -1.00223 0)
(0.00729131 -1.00226 0)
(0.00870356 -1.00004 0)
(0.00866104 -0.989499 0)
(0.0266776 -0.91869 0)
(0.00130381 -0.981144 0)
(0.00279111 -0.993182 0)
(0.00426395 -0.996833 0)
(0.00562824 -0.998788 0)
(0.00689908 -1.0001 0)
(0.00810472 -1.00091 0)
(0.00935704 -1.00075 0)
(0.0112986 -0.99762 0)
(0.011884 -0.983552 0)
(0.0290026 -0.901325 0)
(0.00154616 -0.978439 0)
(0.00338452 -0.991006 0)
(0.00523099 -0.994849 0)
(0.00696047 -0.996935 0)
(0.00859265 -0.998346 0)
(0.0101599 -0.999165 0)
(0.011755 -0.99877 0)
(0.0142129 -0.994596 0)
(0.0156715 -0.976695 0)
(0.0311717 -0.885199 0)
(0.00182766 -0.975192 0)
(0.0040745 -0.988319 0)
(0.00635578 -0.992369 0)
(0.00851036 -0.994595 0)
(0.0105637 -0.996106 0)
(0.012557 -0.996926 0)
(0.014563 -0.996246 0)
(0.0175048 -0.990943 0)
(0.0200859 -0.969119 0)
(0.0335364 -0.870461 0)
(0.00215389 -0.971315 0)
(0.00487465 -0.98504 0)
(0.0076612 -0.98931 0)
(0.0103109 -0.991686 0)
(0.0128565 -0.9933 0)
(0.0153535 -0.994106 0)
(0.0178747 -0.993084 0)
(0.0213075 -0.986557 0)
(0.025078 -0.960928 0)
(0.0374249 -0.857163 0)
(0.00252999 -0.966709 0)
(0.00579845 -0.981076 0)
(0.00917068 -0.985581 0)
(0.012394 -0.988114 0)
(0.0155091 -0.98983 0)
(0.0185858 -0.9906 0)
(0.0217189 -0.98917 0)
(0.0257056 -0.981311 0)
(0.0304177 -0.952071 0)
(0.0423488 -0.844954 0)
(0.00296547 -0.961256 0)
(0.00687113 -0.976307 0)
(0.0109048 -0.981074 0)
(0.0147899 -0.983776 0)
(0.0185562 -0.985595 0)
(0.022282 -0.986314 0)
(0.0260881 -0.984436 0)
(0.0306854 -0.975192 0)
(0.0361122 -0.942655 0)
(0.0474288 -0.834396 0)
(0.00346853 -0.954828 0)
(0.00810061 -0.970692 0)
(0.0128966 -0.975684 0)
(0.0175382 -0.978564 0)
(0.0220431 -0.980495 0)
(0.0264941 -0.981165 0)
(0.0310261 -0.978845 0)
(0.0362592 -0.968283 0)
(0.0424101 -0.932961 0)
(0.0527866 -0.82543 0)
(0.00403774 -0.947289 0)
(0.0094987 -0.963963 0)
(0.0151907 -0.969282 0)
(0.0206881 -0.972361 0)
(0.0260313 -0.974422 0)
(0.031299 -0.975065 0)
(0.0366291 -0.972343 0)
(0.0425051 -0.960607 0)
(0.0494333 -0.923018 0)
(0.0586929 -0.818003 0)
(0.00468699 -0.938483 0)
(0.0111018 -0.956038 0)
(0.017818 -0.961724 0)
(0.0242926 -0.965028 0)
(0.0305931 -0.967248 0)
(0.0367867 -0.967902 0)
(0.0430083 -0.964855 0)
(0.0495848 -0.952168 0)
(0.0571479 -0.913113 0)
(0.0653868 -0.812018 0)
(0.00542839 -0.928222 0)
(0.0129364 -0.946747 0)
(0.0208176 -0.952841 0)
(0.028412 -0.956404 0)
(0.0358092 -0.958817 0)
(0.04306 -0.959538 0)
(0.0502846 -0.956282 0)
(0.057694 -0.942933 0)
(0.0657568 -0.903349 0)
(0.0731729 -0.807274 0)
(0.00627136 -0.916294 0)
(0.0150276 -0.935892 0)
(0.0242343 -0.942441 0)
(0.0331097 -0.9463 0)
(0.0417635 -0.948947 0)
(0.0502299 -0.949801 0)
(0.0585958 -0.946479 0)
(0.0669908 -0.932794 0)
(0.0755501 -0.893675 0)
(0.0823852 -0.803511 0)
(0.00722436 -0.902472 0)
(0.0173989 -0.923257 0)
(0.0281105 -0.930316 0)
(0.0384445 -0.934505 0)
(0.0485339 -0.937427 0)
(0.0583992 -0.938484 0)
(0.0680836 -0.935255 0)
(0.0776175 -0.921664 0)
(0.086801 -0.883905 0)
(0.0933666 -0.800383 0)
(0.00829429 -0.88651 0)
(0.0200693 -0.908607 0)
(0.0324791 -0.916234 0)
(0.0444624 -0.920787 0)
(0.0561815 -0.924017 0)
(0.0676478 -0.925346 0)
(0.0788578 -0.922378 0)
(0.0897296 -0.909309 0)
(0.0997669 -0.873726 0)
(0.106465 -0.797444 0)
(0.00948528 -0.868148 0)
(0.02305 -0.891691 0)
(0.0373597 -0.899953 0)
(0.0511902 -0.904899 0)
(0.0647407 -0.908463 0)
(0.0780206 -0.910123 0)
(0.0909823 -0.907573 0)
(0.103434 -0.895418 0)
(0.114634 -0.862699 0)
(0.121948 -0.794117 0)
(0.0107978 -0.847121 0)
(0.0263432 -0.872253 0)
(0.0427556 -0.881224 0)
(0.0586298 -0.88659 0)
(0.0742109 -0.890503 0)
(0.0895162 -0.892534 0)
(0.104461 -0.890534 0)
(0.11876 -0.879618 0)
(0.131486 -0.850295 0)
(0.139962 -0.789713 0)
(0.0122294 -0.823164 0)
(0.0299408 -0.850039 0)
(0.0486514 -0.859804 0)
(0.0667553 -0.865617 0)
(0.0845514 -0.869886 0)
(0.102078 -0.872308 0)
(0.119225 -0.87095 0)
(0.13564 -0.861505 0)
(0.150279 -0.83592 0)
(0.160501 -0.783452 0)
(0.0137719 -0.796025 0)
(0.0338257 -0.824807 0)
(0.0550141 -0.835468 0)
(0.0755126 -0.841763 0)
(0.09568 -0.846386 0)
(0.115592 -0.8492 0)
(0.13513 -0.848525 0)
(0.153903 -0.840675 0)
(0.170827 -0.818965 0)
(0.183371 -0.774502 0)
(0.0154301 -0.765461 0)
(0.0379745 -0.796331 0)
(0.0617944 -0.808018 0)
(0.0848227 -0.814847 0)
(0.107478 -0.819826 0)
(0.129892 -0.823015 0)
(0.151956 -0.823018 0)
(0.173276 -0.816772 0)
(0.192795 -0.798862 0)
(0.20817 -0.762047 0)
(0.0172099 -0.731249 0)
(0.0423658 -0.76445 0)
(0.0689343 -0.777298 0)
(0.0945891 -0.784739 0)
(0.119798 -0.790091 0)
(0.144768 -0.793632 0)
(0.16942 -0.794268 0)
(0.193392 -0.789532 0)
(0.215715 -0.775157 0)
(0.2343 -0.745377 0)
(0.0190983 -0.693145 0)
(0.0469834 -0.729028 0)
(0.0763782 -0.743204 0)
(0.10471 -0.751371 0)
(0.132479 -0.757144 0)
(0.159987 -0.761026 0)
(0.187203 -0.762225 0)
(0.213827 -0.758829 0)
(0.239026 -0.747571 0)
(0.261014 -0.723994 0)
(0.0210871 -0.650946 0)
(0.0518144 -0.68995 0)
(0.0840782 -0.705687 0)
(0.115088 -0.714749 0)
(0.145362 -0.721034 0)
(0.175312 -0.725274 0)
(0.204975 -0.726969 0)
(0.234135 -0.7247 0)
(0.262124 -0.716049 0)
(0.287492 -0.697688 0)
(0.0231789 -0.604458 0)
(0.0568573 -0.647128 0)
(0.0920006 -0.664757 0)
(0.125639 -0.674949 0)
(0.158296 -0.6819 0)
(0.190517 -0.686561 0)
(0.22242 -0.688707 0)
(0.253889 -0.687353 0)
(0.284433 -0.680777 0)
(0.312936 -0.66659 0)
(0.0253877 -0.553469 0)
(0.0621301 -0.600495 0)
(0.100131 -0.620475 0)
(0.136296 -0.632128 0)
(0.171151 -0.639969 0)
(0.205398 -0.645171 0)
(0.239257 -0.647772 0)
(0.272714 -0.647155 0)
(0.305452 -0.642161 0)
(0.336665 -0.631155 0)
(0.0277418 -0.497734 0)
(0.0676744 -0.550005 0)
(0.108473 -0.57297 0)
(0.146997 -0.58652 0)
(0.183797 -0.595552 0)
(0.219766 -0.601477 0)
(0.255236 -0.604587 0)
(0.290296 -0.604588 0)
(0.324788 -0.60077 0)
(0.358173 -0.592085 0)
(0.0302832 -0.436954 0)
(0.0735508 -0.495653 0)
(0.117023 -0.52245 0)
(0.157656 -0.538446 0)
(0.196077 -0.549035 0)
(0.233408 -0.555915 0)
(0.270111 -0.559636 0)
(0.306365 -0.560197 0)
(0.342146 -0.557254 0)
(0.377132 -0.55021 0)
(0.0331825 -0.370708 0)
(0.0798328 -0.4375 0)
(0.125699 -0.469231 0)
(0.168084 -0.488325 0)
(0.207734 -0.500879 0)
(0.246032 -0.508964 0)
(0.283578 -0.513419 0)
(0.320632 -0.514527 0)
(0.357272 -0.512254 0)
(0.393335 -0.506357 0)
(0.0364826 -0.298632 0)
(0.0865109 -0.376063 0)
(0.134206 -0.413789 0)
(0.177841 -0.436675 0)
(0.218292 -0.451604 0)
(0.25716 -0.461117 0)
(0.29519 -0.466409 0)
(0.33271 -0.468061 0)
(0.369867 -0.466319 0)
(0.406599 -0.461226 0)
(0.0391335 -0.219973 0)
(0.0929177 -0.312602 0)
(0.141955 -0.356975 0)
(0.186201 -0.384054 0)
(0.226928 -0.40169 0)
(0.265983 -0.412806 0)
(0.304221 -0.418991 0)
(0.341989 -0.421161 0)
(0.379458 -0.419839 0)
(0.41662 -0.415316 0)
(0.0372878 -0.133023 0)
(0.0943268 -0.245387 0)
(0.146308 -0.299891 0)
(0.19171 -0.33162 0)
(0.232442 -0.351807 0)
(0.271332 -0.364399 0)
(0.30958 -0.371386 0)
(0.347516 -0.373988 0)
(0.385269 -0.372974 0)
(0.422831 -0.36885 0)
(0.0273015 -0.0518456 0)
(0.0831903 -0.165789 0)
(0.139902 -0.237126 0)
(0.189302 -0.278101 0)
(0.231734 -0.302126 0)
(0.271091 -0.316204 0)
(0.309581 -0.323746 0)
(0.347859 -0.326552 0)
(0.386096 -0.325669 0)
(0.424271 -0.321779 0)
(0.0152439 -0.000849207 0)
(0.060272 -0.0889343 0)
(0.117223 -0.167173 0)
(0.171475 -0.21897 0)
(0.218466 -0.249737 0)
(0.260708 -0.266845 0)
(0.300963 -0.27537 0)
(0.340546 -0.278307 0)
(0.379958 -0.277358 0)
(0.419304 -0.273554 0)
(0.00610837 0.0316748 0)
(0.0358234 -0.0245022 0)
(0.0829619 -0.0962892 0)
(0.135806 -0.153198 0)
(0.18638 -0.190848 0)
(0.233376 -0.21291 0)
(0.277849 -0.224023 0)
(0.320881 -0.227968 0)
(0.363104 -0.227338 0)
(0.404831 -0.223709 0)
(-0.00621794 0.0470181 0)
(0.0152466 0.0137711 0)
(0.0459544 -0.0391338 0)
(0.0872134 -0.0893407 0)
(0.134419 -0.127085 0)
(0.183768 -0.15183 0)
(0.233111 -0.165783 0)
(0.281602 -0.171894 0)
(0.329007 -0.172709 0)
(0.37533 -0.169989 0)
(-0.0195785 0.044615 0)
(-0.0144905 0.0250742 0)
(0.00494488 -0.00439197 0)
(0.0319079 -0.0390882 0)
(0.069379 -0.0681537 0)
(0.115392 -0.0887445 0)
(0.166794 -0.10088 0)
(0.220322 -0.106966 0)
(0.273735 -0.108859 0)
(0.326123 -0.107206 0)
(-0.0244924 0.0129095 0)
(-0.0458639 0.00318207 0)
(-0.0552824 -0.0126439 0)
(-0.0371486 -0.0250197 0)
(-0.00861747 -0.0368387 0)
(0.0315759 -0.0444144 0)
(0.0808624 -0.0477 0)
(0.135207 -0.0506226 0)
(0.19794 -0.0527842 0)
(0.258068 -0.0523679 0)
(-0.0395374 -0.149151 0)
(-0.116545 0.012566 0)
(-0.101534 0.0179655 0)
(-0.0865787 0.0202658 0)
(-0.0687835 0.0229506 0)
(-0.0472464 0.0243818 0)
(-0.026187 0.0251465 0)
(-0.00491774 0.0256425 0)
(0.0159832 0.0245307 0)
(0.0359485 0.0228829 0)
(0.0558893 0.0212905 0)
(0.0740807 0.0190483 0)
(0.0890358 0.0160198 0)
(0.10105 0.0126769 0)
(0.109835 0.00918122 0)
(0.115196 0.00619325 0)
(0.117066 0.00290191 0)
(0.115188 -0.000817844 0)
(0.10939 -0.00477308 0)
(0.0993604 -0.00885377 0)
(0.0849533 -0.0129078 0)
(0.0662801 -0.0165265 0)
(0.0437387 -0.0180094 0)
(0.0193776 -0.0149007 0)
(0.00391589 -0.0075691 0)
(-0.0238822 -0.21795 0)
(-0.0703093 -0.0107313 0)
(-0.0763229 0.0191065 0)
(-0.0721746 0.0286405 0)
(-0.0617803 0.0351646 0)
(-0.0474863 0.0396194 0)
(-0.0306725 0.0422212 0)
(-0.0123231 0.0429814 0)
(0.00651802 0.0415655 0)
(0.024683 0.0390277 0)
(0.0413328 0.035769 0)
(0.0560567 0.0312622 0)
(0.0686265 0.0256306 0)
(0.0788263 0.0194573 0)
(0.0864802 0.0130707 0)
(0.0914622 0.00656629 0)
(0.0937429 -0.000120807 0)
(0.0935735 -0.00700269 0)
(0.0909295 -0.0141824 0)
(0.0857097 -0.0217369 0)
(0.0777434 -0.0295243 0)
(0.0667063 -0.0368958 0)
(0.0525638 -0.0417675 0)
(0.0327399 -0.0402022 0)
(0.0126717 -0.0290677 0)
(-0.00479685 -0.288776 0)
(-0.0515154 -0.0397987 0)
(-0.0643738 0.0146109 0)
(-0.0652538 0.0351726 0)
(-0.0590311 0.0479755 0)
(-0.0481797 0.0565125 0)
(-0.0343642 0.0615842 0)
(-0.0189733 0.0635609 0)
(-0.00262438 0.0627714 0)
(0.013969 0.0597012 0)
(0.029119 0.0546342 0)
(0.0421764 0.0478254 0)
(0.0531938 0.0396558 0)
(0.0620485 0.0306937 0)
(0.068601 0.0213429 0)
(0.0728357 0.0118328 0)
(0.0748057 0.00219684 0)
(0.0746245 -0.00768806 0)
(0.0724172 -0.0179708 0)
(0.0682841 -0.0287606 0)
(0.0622793 -0.0400086 0)
(0.0542792 -0.0512106 0)
(0.0441016 -0.0606216 0)
(0.0304677 -0.0637892 0)
(0.0149698 -0.0542768 0)
(0.00534757 -0.360446 0)
(-0.0455059 -0.0759794 0)
(-0.0622213 0.00493012 0)
(-0.0656722 0.0383124 0)
(-0.0615189 0.0584537 0)
(-0.0524208 0.0717996 0)
(-0.0402462 0.0799558 0)
(-0.0263805 0.0836822 0)
(-0.0116957 0.0836959 0)
(0.00317083 0.0799157 0)
(0.01703 0.0726625 0)
(0.0290768 0.0630719 0)
(0.0391538 0.052041 0)
(0.0471553 0.0401399 0)
(0.0529609 0.0278384 0)
(0.0566419 0.0154472 0)
(0.058338 0.00307992 0)
(0.0582022 -0.00930924 0)
(0.0563853 -0.0218858 0)
(0.0530223 -0.0348355 0)
(0.0482163 -0.0482541 0)
(0.04197 -0.0619239 0)
(0.0340738 -0.074672 0)
(0.0241366 -0.0827652 0)
(0.0140069 -0.0831328 0)
(0.0137026 -0.42109 0)
(-0.0384158 -0.121168 0)
(-0.0608442 -0.011172 0)
(-0.0674713 0.0379425 0)
(-0.0658701 0.0666784 0)
(-0.0582212 0.085233 0)
(-0.0474458 0.0965604 0)
(-0.0347563 0.101965 0)
(-0.0213308 0.102277 0)
(-0.00801469 0.097781 0)
(0.00455375 0.0890382 0)
(0.0158207 0.0772261 0)
(0.0253065 0.063541 0)
(0.0327199 0.0488239 0)
(0.0380232 0.0337587 0)
(0.0413657 0.0187872 0)
(0.042973 0.00407289 0)
(0.0430544 -0.0104443 0)
(0.0417767 -0.0249519 0)
(0.039277 -0.039665 0)
(0.0356568 -0.054734 0)
(0.0309539 -0.0700792 0)
(0.0249979 -0.0849199 0)
(0.0173078 -0.0966348 0)
(0.0111581 -0.102292 0)
(0.0227721 -0.470246 0)
(-0.0281811 -0.172113 0)
(-0.0544204 -0.0343461 0)
(-0.0663516 0.0326159 0)
(-0.0681998 0.0717526 0)
(-0.0629824 0.0962907 0)
(-0.0542908 0.111117 0)
(-0.0433683 0.11835 0)
(-0.0313952 0.119093 0)
(-0.0192698 0.114084 0)
(-0.00766563 0.104154 0)
(0.00282984 0.0904435 0)
(0.0116884 0.0742589 0)
(0.0185877 0.05684 0)
(0.0235057 0.0391959 0)
(0.0266498 0.0219379 0)
(0.0283163 0.00525818 0)
(0.0287596 -0.0109539 0)
(0.0281534 -0.026959 0)
(0.0266219 -0.0430357 0)
(0.0242478 -0.0593874 0)
(0.0210697 -0.076003 0)
(0.0170068 -0.092308 0)
(0.0113171 -0.106509 0)
(0.0079578 -0.115246 0)
(0.0290578 -0.509151 0)
(-0.0151921 -0.221886 0)
(-0.0435175 -0.064756 0)
(-0.0606009 0.0211477 0)
(-0.0664324 0.0720489 0)
(-0.0651801 0.103557 0)
(-0.0594245 0.122616 0)
(-0.0509659 0.132256 0)
(-0.0409443 0.134062 0)
(-0.0302937 0.129051 0)
(-0.0197475 0.118189 0)
(-0.010033 0.102743 0)
(-0.0017424 0.0842421 0)
(0.0047565 0.064299 0)
(0.00942367 0.0443033 0)
(0.0125049 0.025072 0)
(0.0143588 0.00680712 0)
(0.015278 -0.0106982 0)
(0.0154371 -0.0278096 0)
(0.0149438 -0.0448819 0)
(0.0138643 -0.0621727 0)
(0.0122351 -0.0797272 0)
(0.010055 -0.097104 0)
(0.00638366 -0.112984 0)
(0.00548962 -0.123643 0)
(0.0339892 -0.540406 0)
(-0.00217064 -0.266626 0)
(-0.0315503 -0.0975632 0)
(-0.0515333 0.00375825 0)
(-0.0616684 0.0663427 0)
(-0.0646273 0.105805 0)
(-0.0625238 0.129963 0)
(-0.057091 0.142824 0)
(-0.0495808 0.146397 0)
(-0.0409274 0.142065 0)
(-0.0316985 0.130875 0)
(-0.0227948 0.114145 0)
(-0.0149532 0.0936438 0)
(-0.00867815 0.0714052 0)
(-0.00408955 0.0492688 0)
(-0.000929689 0.0283391 0)
(0.00121407 0.00883795 0)
(0.00267885 -0.00958389 0)
(0.00364584 -0.0274394 0)
(0.00421164 -0.0451688 0)
(0.00442958 -0.063073 0)
(0.0043341 -0.0812367 0)
(0.00396821 -0.0993169 0)
(0.00228957 -0.116257 0)
(0.00345626 -0.128038 0)
(0.038578 -0.565189 0)
(0.00894459 -0.306547 0)
(-0.0197732 -0.131292 0)
(-0.0413584 -0.0182358 0)
(-0.0549849 0.0551404 0)
(-0.0619177 0.102726 0)
(-0.0636852 0.132666 0)
(-0.06184 0.149376 0)
(-0.0572944 0.155443 0)
(-0.0512341 0.152674 0)
(-0.0436556 0.142056 0)
(-0.0356104 0.124761 0)
(-0.0280461 0.102735 0)
(-0.0217027 0.0784568 0)
(-0.0169254 0.054349 0)
(-0.0135203 0.0319214 0)
(-0.0110084 0.0114551 0)
(-0.00897677 -0.00756759 0)
(-0.00720973 -0.0258443 0)
(-0.00561311 -0.043919 0)
(-0.00414266 -0.062134 0)
(-0.00276679 -0.080601 0)
(-0.00144884 -0.099058 0)
(-0.00118852 -0.116597 0)
(0.00153584 -0.128979 0)
(0.0432801 -0.585324 0)
(0.0186347 -0.34215 0)
(-0.00859994 -0.164649 0)
(-0.0311144 -0.0430951 0)
(-0.0475203 0.0393792 0)
(-0.0581028 0.0945779 0)
(-0.0638311 0.130264 0)
(-0.0658271 0.151293 0)
(-0.0646943 0.160196 0)
(-0.0613276 0.160355 0)
(-0.0559025 0.151474 0)
(-0.048862 0.134676 0)
(-0.041437 0.111879 0)
(-0.0346252 0.0859116 0)
(-0.0292142 0.0599088 0)
(-0.0252742 0.0360208 0)
(-0.0222779 0.0147394 0)
(-0.0196658 -0.00463746 0)
(-0.0171342 -0.0230534 0)
(-0.0145656 -0.0411893 0)
(-0.0119134 -0.0594375 0)
(-0.00915009 -0.0779416 0)
(-0.00629776 -0.0965248 0)
(-0.00417778 -0.114384 0)
(-0.000184406 -0.126951 0)
(0.0479365 -0.601863 0)
(0.0272319 -0.373917 0)
(0.0017129 -0.197139 0)
(-0.0213241 -0.0699794 0)
(-0.0399142 0.0196532 0)
(-0.0537253 0.0815187 0)
(-0.0632225 0.122704 0)
(-0.0690872 0.148255 0)
(-0.0719007 0.161211 0)
(-0.0713726 0.164178 0)
(-0.0687117 0.15862 0)
(-0.0630749 0.143786 0)
(-0.0558768 0.121434 0)
(-0.0482203 0.0944189 0)
(-0.0415027 0.0665517 0)
(-0.0364526 0.0409751 0)
(-0.0327059 0.0187837 0)
(-0.0294541 -0.000826169 0)
(-0.0261836 -0.0191458 0)
(-0.0227062 -0.0370778 0)
(-0.0189466 -0.0550942 0)
(-0.0148805 -0.0733882 0)
(-0.0105968 -0.0918934 0)
(-0.00674553 -0.109937 0)
(-0.00177807 -0.12229 0)
(0.053039 -0.615729 0)
(0.0350975 -0.402561 0)
(0.011154 -0.228678 0)
(-0.0121797 -0.0982886 0)
(-0.0325101 -0.00335024 0)
(-0.0491319 0.0640701 0)
(-0.0620921 0.110208 0)
(-0.0717115 0.140051 0)
(-0.0782824 0.157402 0)
(-0.0817253 0.164351 0)
(-0.0821287 0.162538 0)
(-0.0788176 0.151474 0)
(-0.0723376 0.131455 0)
(-0.0638407 0.104714 0)
(-0.0550993 0.075302 0)
(-0.0478788 0.0475429 0)
(-0.0426471 0.0239287 0)
(-0.0385167 0.00392897 0)
(-0.0344719 -0.0141778 0)
(-0.030126 -0.031689 0)
(-0.0253247 -0.0492273 0)
(-0.0200134 -0.0670742 0)
(-0.0143128 -0.0853297 0)
(-0.00883883 -0.10351 0)
(-0.00293913 -0.115402 0)
(0.0585264 -0.627826 0)
(0.0425833 -0.428779 0)
(0.0199164 -0.259388 0)
(-0.00360294 -0.127694 0)
(-0.0253966 -0.0290934 0)
(-0.0444975 0.042719 0)
(-0.0606116 0.0931557 0)
(-0.0737667 0.126955 0)
(-0.0841097 0.148078 0)
(-0.0915456 0.159375 0)
(-0.0956104 0.162678 0)
(-0.0962766 0.156422 0)
(-0.0916006 0.141128 0)
(-0.0831199 0.117059 0)
(-0.0723338 0.087508 0)
(-0.0616128 0.0573064 0)
(-0.0532143 0.0310874 0)
(-0.047308 0.00998665 0)
(-0.0422436 -0.00808365 0)
(-0.0369702 -0.0250645 0)
(-0.0311515 -0.0418963 0)
(-0.0245861 -0.0589933 0)
(-0.0172877 -0.0766317 0)
(-0.00993624 -0.0948055 0)
(-0.00308923 -0.10737 0)
(0.064684 -0.638848 0)
(0.0501216 -0.453229 0)
(0.0284075 -0.289461 0)
(0.00471336 -0.158071 0)
(-0.0183577 -0.0572286 0)
(-0.0396259 0.0178656 0)
(-0.0585625 0.0718749 0)
(-0.0750005 0.109224 0)
(-0.0889173 0.133949 0)
(-0.100179 0.149106 0)
(-0.108411 0.156457 0)
(-0.113326 0.157349 0)
(-0.113352 0.14819 0)
(-0.106917 0.129998 0)
(-0.0957848 0.103634 0)
(-0.081649 0.0727773 0)
(-0.0678517 0.042662 0)
(-0.057529 0.0184281 0)
(-0.0502064 -0.000394176 0)
(-0.04365 -0.0170309 0)
(-0.0367561 -0.0330556 0)
(-0.028901 -0.0491884 0)
(-0.0195219 -0.0659694 0)
(-0.00957119 -0.0838185 0)
(-0.00486668 -0.0993644 0)
(0.0719204 -0.649286 0)
(0.0583007 -0.476468 0)
(0.0372204 -0.319145 0)
(0.0133271 -0.189335 0)
(-0.0108459 -0.0874317 0)
(-0.0339367 -0.0100483 0)
(-0.0552967 0.0467836 0)
(-0.0746507 0.0871214 0)
(-0.0918737 0.114986 0)
(-0.106816 0.133677 0)
(-0.119191 0.145121 0)
(-0.128489 0.150229 0)
(-0.134202 0.149958 0)
(-0.133821 0.139431 0)
(-0.125858 0.120524 0)
(-0.112122 0.0940026 0)
(-0.0940298 0.0630678 0)
(-0.0757167 0.0332738 0)
(-0.0619466 0.00997667 0)
(-0.0519908 -0.00759749 0)
(-0.0428559 -0.0228171 0)
(-0.0330395 -0.0373756 0)
(-0.0199119 -0.0519335 0)
(-0.00130223 -0.066662 0)
(0.015276 -0.0837749 0)
(0.0807052 -0.659504 0)
(0.0676642 -0.498942 0)
(0.0470455 -0.348559 0)
(0.0229506 -0.221369 0)
(-0.00210307 -0.119364 0)
(-0.0266513 -0.0404841 0)
(-0.0499649 0.018506 0)
(-0.0716721 0.0612564 0)
(-0.091643 0.0916703 0)
(-0.109806 0.113251 0)
(-0.126047 0.128006 0)
(-0.139935 0.137178 0)
(-0.150851 0.141459 0)
(-0.15799 0.141335 0)
(-0.158387 0.131127 0)
(-0.150701 0.11428 0)
(-0.136039 0.0901361 0)
(-0.115043 0.0614927 0)
(-0.0918715 0.0329939 0)
(-0.0718021 0.00908606 0)
(-0.0566654 -0.00853959 0)
(-0.0426651 -0.020841 0)
(-0.0287637 -0.0287808 0)
(-0.0141319 -0.0293901 0)
(0.000453246 -0.0169646 0)
(0.0914768 -0.669467 0)
(0.0788966 -0.520893 0)
(0.058685 -0.377952 0)
(0.0344242 -0.254031 0)
(0.00870397 -0.152649 0)
(-0.016957 -0.0728719 0)
(-0.0417018 -0.0122098 0)
(-0.065097 0.0324942 0)
(-0.0869539 0.0648294 0)
(-0.107599 0.088504 0)
(-0.127057 0.105784 0)
(-0.144669 0.117876 0)
(-0.160296 0.125797 0)
(-0.173426 0.129997 0)
(-0.183292 0.13049 0)
(-0.187089 0.122683 0)
(-0.18356 0.109619 0)
(-0.172319 0.090389 0)
(-0.154256 0.0673106 0)
(-0.133248 0.0448908 0)
(-0.112694 0.0259314 0)
(-0.0966169 0.00991695 0)
(-0.0893132 -0.00611857 0)
(-0.0935158 -0.0270328 0)
(-0.117021 -0.0627462 0)
(0.104703 -0.679121 0)
(0.0927144 -0.542289 0)
(0.0729156 -0.407167 0)
(0.0486358 -0.287146 0)
(0.0224418 -0.186947 0)
(-0.00403533 -0.10669 0)
(-0.0298155 -0.0446195 0)
(-0.0543686 0.00182427 0)
(-0.0773855 0.0357289 0)
(-0.0993102 0.0605679 0)
(-0.120522 0.0794513 0)
(-0.140747 0.093656 0)
(-0.15949 0.10387 0)
(-0.176806 0.110683 0)
(-0.192615 0.114073 0)
(-0.205988 0.113612 0)
(-0.214458 0.108262 0)
(-0.219716 0.0967531 0)
(-0.219748 0.0782443 0)
(-0.215947 0.0546228 0)
(-0.21145 0.0278969 0)
(-0.208733 -0.00137309 0)
(-0.210598 -0.0331258 0)
(-0.218581 -0.0688844 0)
(-0.229378 -0.109606 0)
(0.120775 -0.688096 0)
(0.109632 -0.562954 0)
(0.0904725 -0.436031 0)
(0.066383 -0.320465 0)
(0.0399429 -0.221936 0)
(0.0129066 -0.141547 0)
(-0.0136306 -0.0782533 0)
(-0.038998 -0.0300345 0)
(-0.0628422 0.00568626 0)
(-0.0850999 0.0317994 0)
(-0.106365 0.0514281 0)
(-0.127081 0.066665 0)
(-0.147033 0.0783491 0)
(-0.166126 0.0866981 0)
(-0.184282 0.0919494 0)
(-0.201535 0.0938045 0)
(-0.217461 0.0915747 0)
(-0.231258 0.0846479 0)
(-0.242126 0.0722215 0)
(-0.249689 0.0538331 0)
(-0.253457 0.030049 0)
(-0.255762 0.00159864 0)
(-0.256387 -0.030524 0)
(-0.251734 -0.0640659 0)
(-0.242665 -0.0952818 0)
(0.139961 -0.695816 0)
(0.130108 -0.58245 0)
(0.111972 -0.464192 0)
(0.0884097 -0.35366 0)
(0.06203 -0.257288 0)
(0.0347202 -0.177104 0)
(0.0077192 -0.112749 0)
(-0.0181734 -0.0627261 0)
(-0.0424794 -0.0248816 0)
(-0.0650362 0.00329295 0)
(-0.086006 0.0242574 0)
(-0.105801 0.0403037 0)
(-0.124866 0.0526788 0)
(-0.143274 0.0618745 0)
(-0.16095 0.0679866 0)
(-0.177834 0.0708729 0)
(-0.193714 0.0703577 0)
(-0.208179 0.0659943 0)
(-0.220691 0.0572824 0)
(-0.230587 0.0439555 0)
(-0.237071 0.0261122 0)
(-0.239336 0.00447937 0)
(-0.236485 -0.0197121 0)
(-0.227698 -0.0444528 0)
(-0.211922 -0.0665637 0)
(0.162345 -0.701519 0)
(0.154405 -0.6001 0)
(0.137865 -0.491069 0)
(0.115326 -0.386242 0)
(0.0894174 -0.292577 0)
(0.0621756 -0.212959 0)
(0.0350085 -0.147745 0)
(0.00884362 -0.0959382 0)
(-0.0157337 -0.0558383 0)
(-0.0384483 -0.0253101 0)
(-0.0593227 -0.002156 0)
(-0.0785894 0.015499 0)
(-0.0965571 0.0290441 0)
(-0.113436 0.0392917 0)
(-0.129255 0.0465281 0)
(-0.143967 0.0507569 0)
(-0.157439 0.051856 0)
(-0.169442 0.049619 0)
(-0.179572 0.0437113 0)
(-0.18723 0.0340903 0)
(-0.191706 0.0212662 0)
(-0.192233 0.00605934 0)
(-0.188239 -0.0105874 0)
(-0.179271 -0.0274659 0)
(-0.165609 -0.0430656 0)
(0.187778 -0.704285 0)
(0.182508 -0.614994 0)
(0.168324 -0.515839 0)
(0.147493 -0.417515 0)
(0.12262 -0.32725 0)
(0.0958824 -0.248673 0)
(0.0688684 -0.182872 0)
(0.0426567 -0.129415 0)
(0.0179392 -0.0870256 0)
(-0.00491104 -0.0539915 0)
(-0.0258061 -0.0284259 0)
(-0.0448598 -0.00858995 0)
(-0.0622781 0.00687146 0)
(-0.0782426 0.0188345 0)
(-0.0928015 0.0277337 0)
(-0.105863 0.0336934 0)
(-0.11724 0.0367794 0)
(-0.126792 0.0369043 0)
(-0.134424 0.0338473 0)
(-0.139794 0.0276706 0)
(-0.142496 0.0189373 0)
(-0.142187 0.00839862 0)
(-0.13863 -0.00322257 0)
(-0.131814 -0.0151914 0)
(-0.122086 -0.0267637 0)
(0.215831 -0.703112 0)
(0.214059 -0.626022 0)
(0.20315 -0.537417 0)
(0.18492 -0.446538 0)
(0.161845 -0.360555 0)
(0.136207 -0.283695 0)
(0.109769 -0.217753 0)
(0.0837827 -0.162909 0)
(0.0590727 -0.118374 0)
(0.0361104 -0.0828198 0)
(0.0150816 -0.054697 0)
(-0.00402685 -0.0324753 0)
(-0.0213541 -0.0148347 0)
(-0.0370442 -0.000804483 0)
(-0.0511288 0.0102174 0)
(-0.0635251 0.0184741 0)
(-0.0741181 0.023932 0)
(-0.0827345 0.0265203 0)
(-0.0893922 0.0262019 0)
(-0.0940015 0.0230103 0)
(-0.0963601 0.0174764 0)
(-0.0963311 0.0103228 0)
(-0.0938675 0.00215039 0)
(-0.0890503 -0.00654469 0)
(-0.0821208 -0.0152911 0)
(0.245792 -0.697025 0)
(0.248313 -0.631969 0)
(0.241683 -0.554487 0)
(0.227132 -0.472077 0)
(0.206856 -0.391465 0)
(0.183141 -0.317245 0)
(0.157904 -0.251854 0)
(0.132574 -0.196097 0)
(0.108135 -0.149718 0)
(0.0851899 -0.111826 0)
(0.0640311 -0.0811981 0)
(0.0447217 -0.0565261 0)
(0.027185 -0.0365918 0)
(0.0113188 -0.0203721 0)
(-0.0028773 -0.00712824 0)
(-0.015302 0.00347412 0)
(-0.0259346 0.0114255 0)
(-0.0347374 0.016601 0)
(-0.0416795 0.0188427 0)
(-0.046712 0.0182955 0)