/*--------------------------------*- C++ -*----------------------------------*\
| =========                 |                                                 |
| \\      /  F ield         | OpenFOAM: The Open Source CFD Toolbox           |
|  \\    /   O peration     | Version:  v2012                                 |
|   \\  /    A nd           | Website:  www.openfoam.com                      |
|    \\/     M anipulation  |                                                 |
\*---------------------------------------------------------------------------*/
FoamFile
{
    version     2.0;
    format      ascii;
    class       volScalarField;
    location    "545";
    object      k;
}
// * * * * * * * * * * * * * * * * * * * * * * * * * * * * * * * * * * * * * //

dimensions      [0 2 -2 0 0 0 0];


internalField   nonuniform List<scalar> 
6018
(
0.0102844
0.0120729
0.0138368
0.015584
0.0173244
0.0190886
0.0209278
0.0229057
0.0250959
0.0275876
0.0304947
0.0339676
0.0382114
0.0435155
0.0503009
0.0591972
0.0711693
0.0877486
0.111496
0.147015
0.0154068
0.0171219
0.0190311
0.0211539
0.0235157
0.0261498
0.0291112
0.0324763
0.0363388
0.0408119
0.0460335
0.0521736
0.0594431
0.0681057
0.0784777
0.090941
0.105935
0.123916
0.145268
0.169943
0.0290875
0.0318852
0.0348125
0.0379016
0.0411907
0.0447286
0.0485739
0.0527945
0.0574668
0.0626775
0.0685255
0.075126
0.0826096
0.0911192
0.100827
0.111925
0.124613
0.139099
0.155591
0.174326
0.039821
0.0427827
0.0458488
0.0490596
0.0524571
0.0560871
0.0599986
0.0642446
0.0688835
0.0739799
0.079607
0.085848
0.0927987
0.100573
0.109308
0.119168
0.130357
0.143139
0.157877
0.175089
0.0456222
0.0484198
0.0513425
0.0544285
0.0577142
0.0612368
0.0650354
0.0691526
0.0736355
0.0785378
0.0839217
0.0898606
0.0964431
0.103779
0.112007
0.121307
0.131912
0.144134
0.158401
0.175294
0.047037
0.0495685
0.0522676
0.0551679
0.0583003
0.0616967
0.0653917
0.069424
0.0738382
0.0786831
0.084023
0.0899293
0.0964884
0.103808
0.112025
0.121317
0.131916
0.144136
0.158402
0.175294
0.0440916
0.0462573
0.048649
0.0512941
0.0542202
0.0574568
0.0610387
0.0650066
0.0694354
0.0743776
0.0798891
0.0860435
0.0929306
0.10066
0.109362
0.1192
0.130374
0.143147
0.157879
0.175089
0.0358735
0.0374446
0.0393036
0.0414744
0.0439784
0.0468425
0.0501486
0.0539761
0.058347
0.063329
0.0690021
0.0754685
0.0828471
0.0912782
0.100931
0.111988
0.124648
0.139116
0.155597
0.174327
0.0213589
0.0219593
0.0228912
0.024165
0.0258142
0.0279176
0.030489
0.033546
0.0371639
0.0414425
0.0465115
0.0525327
0.0597099
0.0682988
0.0786119
0.0910291
0.105987
0.123943
0.14528
0.169945
0.0191909
0.018915
0.0189577
0.019368
0.0200933
0.0211044
0.0223868
0.023956
0.0258485
0.0281248
0.0308762
0.0342358
0.0383968
0.0436403
0.0503816
0.0592462
0.0711963
0.0877614
0.1115
0.147015
8.46766e-05
0.000107073
0.000108958
9.01517e-05
5.89731e-05
3.11832e-05
1.45275e-05
7.23212e-06
5.536e-06
9.39369e-06
2.54028e-05
5.46699e-05
8.70153e-05
0.00010983
0.000115904
0.000114975
0.000112905
0.000116292
0.000128721
0.00013982
0.000145408
0.000150571
0.00015876
0.000158931
0.000154816
0.00017236
0.000339545
0.000662705
0.00124202
0.00214611
0.00339276
0.00493438
0.00665988
0.00846379
0.000383543
0.000328894
0.000234614
0.000162111
0.00010819
6.98271e-05
4.45716e-05
2.99095e-05
2.56663e-05
5.02088e-05
0.000158669
0.000333611
0.000490662
0.000555339
0.000548383
0.000571009
0.000629957
0.000743111
0.000903268
0.00106549
0.0012062
0.0014696
0.00195488
0.00256095
0.00328612
0.0041322
0.0050955
0.00615458
0.00729863
0.00852658
0.00982286
0.011167
0.012529
0.013874
0.00104003
0.000986252
0.000844204
0.000661972
0.000484659
0.000339017
0.000233401
0.000166662
0.000146141
0.000246828
0.000688433
0.00137669
0.0020437
0.00252155
0.00295504
0.00334137
0.00383098
0.0045465
0.00556957
0.00649686
0.00731695
0.00804377
0.00875723
0.00951213
0.0103752
0.0113736
0.012533
0.0138685
0.0153972
0.017126
0.0190861
0.0213351
0.0237827
0.026376
0.00159314
0.00153848
0.00137461
0.00116946
0.000938243
0.000716197
0.000533507
0.000413158
0.000417008
0.000786532
0.00197927
0.00362654
0.00521492
0.00686698
0.00818288
0.00951338
0.0109234
0.012206
0.0130816
0.013467
0.0136003
0.0137725
0.0141671
0.014863
0.0158893
0.0172499
0.0189382
0.0209311
0.0232092
0.0257295
0.0284047
0.0311838
0.0340219
0.0368993
0.00219933
0.00210141
0.00189417
0.00164034
0.00136358
0.00109296
0.000866813
0.000763886
0.00108624
0.00252277
0.0051251
0.00820279
0.0110722
0.0134437
0.0153261
0.0169297
0.0179743
0.0181717
0.01776
0.0172083
0.0168925
0.0170216
0.017662
0.0187985
0.0203773
0.0223263
0.0245642
0.027008
0.0295815
0.0322194
0.0348773
0.0375372
0.0402
0.042885
0.00301752
0.0028301
0.00252604
0.00216963
0.00181026
0.00148869
0.00128224
0.0015002
0.00307906
0.00669347
0.0111943
0.0153524
0.0182627
0.0202898
0.0216173
0.0220681
0.0215602
0.0204097
0.0193002
0.0186494
0.0186336
0.0192627
0.0204585
0.0221042
0.0240732
0.0262479
0.0285312
0.0308524
0.033167
0.0354567
0.0377248
0.0399889
0.0422745
0.0446125
0.00407195
0.00374425
0.00328445
0.00276948
0.00230037
0.00197561
0.00207405
0.00350469
0.00747788
0.0133295
0.0188459
0.022429
0.0244723
0.025285
0.0249822
0.0236775
0.0219442
0.0204162
0.0195197
0.019383
0.0199491
0.0210756
0.022596
0.0243534
0.0262195
0.0281016
0.0299436
0.0317223
0.03344
0.0351174
0.0367872
0.0384839
0.0402368
0.0420883
0.0053288
0.00476891
0.00408727
0.00339736
0.00288711
0.00285426
0.00409681
0.00788062
0.0146026
0.0210618
0.0256425
0.0278694
0.028178
0.0270779
0.0250355
0.0227837
0.0209203
0.0198001
0.0195006
0.019906
0.0208228
0.0220502
0.023416
0.0247903
0.0260882
0.0272655
0.0283128
0.0292432
0.0300871
0.0308854
0.0316814
0.0325255
0.0334714
0.0345607
0.00665324
0.00582009
0.00491271
0.00415323
0.00392973
0.00499813
0.00859868
0.0147716
0.0220156
0.0276312
0.0303934
0.0304895
0.0286739
0.0259953
0.0232543
0.0210581
0.019693
0.0191694
0.0193239
0.0199251
0.0207493
0.021614
0.0223876
0.0229884
0.0233748
0.0235376
0.0234861
0.0232494
0.0228654
0.0223825
0.0218699
0.0214128
0.0211051
0.0210593
0.00797117
0.00691876
0.00592985
0.00548038
0.00634212
0.00929648
0.014801
0.0218371
0.028223
0.0318202
0.0321042
0.0299815
0.0267679
0.0235666
0.0210176
0.0193713
0.0185804
0.0184391
0.0186918
0.019102
0.0194848
0.0197132
0.0197151
0.0194619
0.0189614
0.0182479
0.0173749
0.0163895
0.01534
0.0142707
0.0132347
0.0125346
0.0125938
0.0142197
5.24092e-07
2.92702e-06
7.01637e-06
1.20406e-05
2.40548e-05
5.25823e-05
2.53866e-06
8.98623e-06
5.09806e-05
0.000166026
0.000290645
0.000370958
5.96942e-06
3.1e-05
0.000207837
0.000503285
0.000783886
0.000970929
8.72598e-06
7.68279e-05
0.000404299
0.000852762
0.00124414
0.00149576
1.06962e-05
0.000159038
0.000674793
0.00129078
0.00179678
0.00210143
1.6699e-05
0.000313229
0.0010757
0.0019128
0.00257135
0.00293654
7.46208e-05
0.000574848
0.00166591
0.00280963
0.00365867
0.00406873
0.000258426
0.000977722
0.00251899
0.00406587
0.00511084
0.00550429
0.000650333
0.00156057
0.00372437
0.00574704
0.00690542
0.00712771
0.0012235
0.00236047
0.00536264
0.00781237
0.00890119
0.0088024
0.00933951
0.00822613
0.00760229
0.00814347
0.0105242
0.0151341
0.0215119
0.0279273
0.0321726
0.0329951
0.0308889
0.0273433
0.0237316
0.0208453
0.0189235
0.0178779
0.017471
0.0174383
0.0175534
0.017655
0.0176525
0.0175172
0.0172632
0.0169118
0.0164173
0.015763
0.0148859
0.0137195
0.0122236
0.010405
0.00834692
0.00621638
0.0042297
0.00312539
0.0109711
0.0101958
0.0103659
0.0120996
0.0157884
0.0212068
0.0271609
0.0316714
0.0331334
0.031434
0.0278571
0.0239675
0.0207615
0.0185669
0.0172957
0.0167028
0.0165332
0.0165874
0.0167473
0.0169676
0.0172484
0.0175926
0.01796
0.0182363
0.0182485
0.0178164
0.0167747
0.0150643
0.0127547
0.00996686
0.00670307
0.00363385
0.00146869
0.00057676
0.0132059
0.0129532
0.0140234
0.0167868
0.0211728
0.0263585
0.0307579
0.0327118
0.0316122
0.0283015
0.0243154
0.0208534
0.0184047
0.0169488
0.0162596
0.0161024
0.016312
0.0168069
0.0175696
0.018591
0.0198111
0.0210681
0.0220873
0.0225274
0.0220871
0.0205911
0.0180996
0.0148949
0.0114726
0.00836478
0.00576053
0.00360813
0.00165652
0.000397048
0.0158882
0.0163101
0.0181743
0.0215285
0.0258123
0.0298008
0.0319906
0.0314819
0.0286357
0.0247555
0.0211416
0.0184786
0.016872
0.0161532
0.0161149
0.0166204
0.0176116
0.0190635
0.0209136
0.0229805
0.0249248
0.0262778
0.0265629
0.0254648
0.022969
0.0193979
0.015436
0.0119666
0.00914478
0.00712973
0.00549097
0.00395956
0.00198423
0.000349067
0.0189417
0.0199657
0.0223245
0.0256703
0.0290617
0.0312259
0.0311674
0.0288516
0.0252421
0.0216015
0.0187804
0.0170495
0.0163334
0.0164683
0.0173362
0.0188812
0.0210445
0.0236666
0.026408
0.0287365
0.0300353
0.0298002
0.0278475
0.0244109
0.0200481
0.0157788
0.0124043
0.00993643
0.00805217
0.00661627
0.00543659
0.00420328
0.00221915
0.000320779
0.0221155
0.0235313
0.0259625
0.0286939
0.0306271
0.0308231
0.02899
0.0257425
0.0221914
0.0192775
0.0174436
0.0167339
0.0170445
0.0182785
0.0203635
0.0231844
0.0264622
0.0296886
0.0321719
0.0332181
0.0323812
0.0296374
0.0253781
0.0203044
0.0160496
0.0128243
0.0103644
0.00851913
0.00716381
0.00614222
0.00529163
0.00426593
0.00232334
0.000280791
0.0250767
0.0265721
0.0286303
0.0303235
0.0305972
0.0291297
0.0262515
0.0228679
0.0199245
0.0180032
0.017283
0.0177368
0.0192901
0.0218481
0.0252231
0.0290165
0.0325648
0.0350592
0.0357861
0.0343779
0.0309017
0.0258139
0.0202872
0.0160744
0.0127889
0.0103133
0.00849709
0.0071738
0.00622249
0.00553396
0.00494929
0.00411074
0.00227274
0.000239113
0.0275815
0.0288309
0.0301314
0.0305728
0.0293573
0.0267964
0.0236042
0.0206783
0.0186831
0.0179138
0.0184484
0.0202354
0.0231575
0.0269507
0.0311008
0.0348232
0.0372282
0.0376121
0.0356727
0.0315142
0.0253294
0.0198509
0.015502
0.012199
0.00972945
0.00794051
0.00668857
0.00580333
0.0051921
0.00477993
0.00441324
0.00372838
0.00202853
0.000233326
0.0294599
0.0301656
0.0304948
0.0297179
0.0274277
0.0244139
0.0215123
0.0194368
0.0185833
0.0191025
0.0210087
0.0241524
0.0282034
0.0325422
0.0362907
0.0385154
0.0385336
0.0360922
0.0312497
0.0241118
0.0185058
0.0141932
0.0109801
0.00863332
0.00699383
0.00583834
0.00503464
0.0044844
0.00413664
0.00393267
0.00371123
0.00316215
0.00168982
0.000228591
0.0306146
0.030593
0.0299358
0.0281706
0.0253339
0.0224375
0.0202397
0.0192319
0.0196552
0.0215408
0.024748
0.0288869
0.0332517
0.0368891
0.0388454
0.0384737
0.0355793
0.0302149
0.0224252
0.0165546
0.0122498
0.00922813
0.00711099
0.00566653
0.00469913
0.00403105
0.0035696
0.00326827
0.00311576
0.00305442
0.00296658
0.00256999
0.00132435
0.000213239
0.0310645
0.0302728
0.0287778
0.0263659
0.0234707
0.0210997
0.0198562
0.0200771
0.0218137
0.0249223
0.0289887
0.0332437
0.0366685
0.0382957
0.0375196
0.0342295
0.0285969
0.0208451
0.0144358
0.0101639
0.0072525
0.00543521
0.00422416
0.00342635
0.00290192
0.0025496
0.0023227
0.00220958
0.00220702
0.0022653
0.00230851
0.00202102
0.000972473
0.000183978
0.0309202
0.0294329
0.0273371
0.0246345
0.0220709
0.0205139
0.0203959
0.0218452
0.0247199
0.0285752
0.0326206
0.0357897
0.0370848
0.0359307
0.0323018
0.0265843
0.0192053
0.0127853
0.00829015
0.00561546
0.00398608
0.00298653
0.00234956
0.00193086
0.00165115
0.00147196
0.00138544
0.00139771
0.00150118
0.00166837
0.00177725
0.001537
0.000649465
0.000154479
0.0303378
0.0283061
0.0258809
0.0232203
0.0212817
0.0207096
0.021704
0.0242153
0.0277635
0.0315394
0.034463
0.0354971
0.0340584
0.0301809
0.0243819
0.0173887
0.0113605
0.00708543
0.00448498
0.00308524
0.0023119
0.00183708
0.00149223
0.00122811
0.00101853
0.000874942
0.000820966
0.000877244
0.00102891
0.00124072
0.00134431
0.00108274
0.000398374
0.000124927
0.0294731
0.0270698
0.0245206
0.0222197
0.0210784
0.0215123
0.0235105
0.0266672
0.0301574
0.0328861
0.0337842
0.0322256
0.028264
0.0225346
0.0160319
0.0100507
0.00607302
0.00379914
0.00266657
0.00210217
0.00176981
0.00152547
0.001302
0.00107239
0.000844062
0.000658691
0.000566284
0.000597752
0.000736883
0.000906107
0.000949594
0.000703804
0.000235722
8.82809e-05
0.0284656
0.025869
0.0234018
0.0216771
0.0214124
0.0227424
0.025402
0.0285878
0.0311974
0.0321077
0.0306234
0.0267572
0.0211787
0.0149333
0.00923425
0.00533626
0.00332168
0.00242911
0.00201964
0.00179206
0.00163508
0.00149831
0.00134423
0.00114508
0.000901321
0.000659229
0.000492019
0.000449762
0.000521684
0.000622817
0.000622013
0.000429094
0.0001346
5.32521e-05
0.0274246
0.0247991
0.0225806
0.0215212
0.0220701
0.0240992
0.0269247
0.029461
0.0305322
0.0293208
0.025746
0.0204504
0.0144865
0.00898235
0.00498142
0.00300576
0.00224151
0.00192579
0.00175965
0.00165559
0.00158311
0.00151926
0.00143423
0.00129272
0.00107205
0.000793943
0.000536061
0.000383667
0.000359457
0.000402132
0.000383849
0.000250427
7.38887e-05
2.72965e-05
0.0264144
0.0238556
0.02204
0.0216789
0.0229017
0.025258
0.0277045
0.0290322
0.0282755
0.0251771
0.020292
0.0146488
0.00932762
0.0052467
0.00294766
0.00209724
0.00181789
0.00168456
0.00160358
0.00155376
0.00152633
0.00151074
0.00148643
0.0014197
0.00127052
0.00101974
0.000706263
0.000431053
0.00028251
0.00025608
0.000228974
0.000142337
3.90206e-05
1.21406e-05
0.0254723
0.0230587
0.0217325
0.0219967
0.0236911
0.0259532
0.0275488
0.0273733
0.0249212
0.0205604
0.0152525
0.0101016
0.00591423
0.00326699
0.00209707
0.00173557
0.00161984
0.00155317
0.00150729
0.0014795
0.0014678
0.00147087
0.00147937
0.00147158
0.00140917
0.00124832
0.000970377
0.000624718
0.000332334
0.000191102
0.000140796
8.10572e-05
2.02909e-05
5.10082e-06
0.024622
0.0224301
0.0216286
0.0223856
0.0242542
0.0260341
0.0264834
0.0248273
0.0211356
0.0162568
0.0112114
0.00690728
0.00389175
0.00232173
0.00175622
0.00159899
0.00154715
0.00151235
0.0014801
0.00145604
0.00143923
0.00143588
0.00144421
0.00145645
0.00144937
0.00138152
0.00120666
0.000904347
0.000532259
0.000230825
0.000110148
5.13476e-05
1.13871e-05
2.56135e-06
0.0238183
0.0219317
0.0215921
0.0227256
0.02447
0.0254807
0.0246997
0.0218289
0.017457
0.0126019
0.00819673
0.0048213
0.00278719
0.0019071
0.00164593
0.00158619
0.00157002
0.0015562
0.00153358
0.00150262
0.00146815
0.00144461
0.00143072
0.00142742
0.0014283
0.00140656
0.00131988
0.00112008
0.000791816
0.000411504
0.000143891
4.67742e-05
8.72701e-06
2.25347e-06
0.0230897
0.0215575
0.0216197
0.0229323
0.024298
0.0243885
0.0224869
0.0187998
0.0142339
0.00976162
0.00606398
0.00353608
0.00222645
0.00175684
0.00165327
0.00164855
0.00165733
0.0016586
0.00164266
0.0016108
0.00156766
0.00151978
0.00147282
0.00143564
0.00141165
0.00138788
0.00133592
0.0012101
0.000965222
0.000605803
0.000241274
6.31463e-05
1.12522e-05
3.45078e-06
0.0224354
0.0212525
0.0216587
0.0229609
0.0237675
0.0229205
0.02013
0.0160174
0.0115827
0.00762005
0.0046138
0.00278533
0.00197354
0.00174495
0.00173036
0.00176183
0.00178937
0.00180203
0.00179193
0.00176012
0.00170986
0.0016462
0.00157674
0.00150447
0.00144312
0.00139045
0.00133177
0.00123355
0.00104748
0.000741373
0.000367844
9.47499e-05
1.61957e-05
5.44421e-06
0.0218583
0.0210187
0.0216773
0.0228048
0.0229539
0.0212545
0.0178465
0.0136114
0.00947828
0.00604817
0.00366223
0.00237434
0.00189386
0.00181016
0.00185075
0.00190768
0.00194922
0.00197017
0.00196585
0.00193726
0.00188619
0.00181503
0.00172793
0.00163196
0.00153539
0.00144484
0.00135782
0.00125476
0.0010953
0.000833258
0.00047077
0.00014206
2.11349e-05
7.92607e-06
0.0213629
0.02085
0.0216569
0.022484
0.0219519
0.0195439
0.0157685
0.0116077
0.00784187
0.00491991
0.00305966
0.00217339
0.00191134
0.00191731
0.00199324
0.00206728
0.00211851
0.00214466
0.0021459
0.00212298
0.00207659
0.00200696
0.00191501
0.00180418
0.00168143
0.00155559
0.00143242
0.00130554
0.00114746
0.000911918
0.000569898
0.000205155
2.95714e-05
1.01733e-05
0.0209508
0.0207354
0.0215907
0.0220346
0.0208535
0.0179002
0.0139529
0.009975
0.00658813
0.00412645
0.00269423
0.00209979
0.00198174
0.00204394
0.00214183
0.00222609
0.00228331
0.00231131
0.00231735
0.00230137
0.00226335
0.00220176
0.0021146
0.00200138
0.00186523
0.00171377
0.00155649
0.00139719
0.00122254
0.00099491
0.000670708
0.000282498
4.14378e-05
1.14232e-05
0.0206075
0.0206604
0.0214827
0.0214995
0.0197355
0.0163903
0.0124074
0.00866194
0.00563895
0.00357957
0.00248659
0.00210155
0.00207826
0.00217499
0.00228466
0.00237273
0.00243135
0.00246115
0.00247093
0.00246203
0.00243435
0.00238524
0.00231023
0.00220505
0.00206838
0.00190421
0.00172174
0.00153044
0.00132902
0.00109252
0.000774853
0.000371009
6.08492e-05
1.20066e-05
0.020347
0.0206203
0.021342
0.0209196
0.0186543
0.0150467
0.0111139
0.00761549
0.00492816
0.00321103
0.00238208
0.00214608
0.00218463
0.00230129
0.00241533
0.00250257
0.00255955
0.00258931
0.00260139
0.0025989
0.00258211
0.00254781
0.00248975
0.00240045
0.00227408
0.00211004
0.00191473
0.00169904
0.00146931
0.00121318
0.000890163
0.000471352
9.20162e-05
1.16785e-05
0.0201557
0.0206068
0.0211718
0.0203279
0.0176476
0.0138775
0.010043
0.00678776
0.00440165
0.00296975
0.00234379
0.00221306
0.0022911
0.00241762
0.00253063
0.00261349
0.00266622
0.00269396
0.00270677
0.0027095
0.00270313
0.00268438
0.00264588
0.00257753
0.00246945
0.00231618
0.00212026
0.00189154
0.0016396
0.00136082
0.00102372
0.000587905
0.000142271
1.02291e-05
0.020027
0.020611
0.0209723
0.0197482
0.0167361
0.0128765
0.00916387
0.00613788
0.00401631
0.00281842
0.00234703
0.00228994
0.00239213
0.00252146
0.00262953
0.00270534
0.00275171
0.0027756
0.00278752
0.002794
0.00279696
0.00279346
0.00277545
0.00273086
0.00264626
0.00251146
0.00232472
0.00209424
0.00183079
0.00153402
0.00117886
0.000723745
0.000216301
9.67675e-06
0.019948
0.0206279
0.0207607
0.0191992
0.0159292
0.0120306
0.00844794
0.00563191
0.00373852
0.00273018
0.00237546
0.00236917
0.00248486
0.00261214
0.00271259
0.00277946
0.00281781
0.00283621
0.00284568
0.00285431
0.00286517
0.00287597
0.0028784
0.00285879
0.0028006
0.00268922
0.00251835
0.00229447
0.00203077
0.00172664
0.00135562
0.0008807
0.000317711
2.87418e-05
0.0199058
0.0206349
0.0205494
0.0186918
0.0152277
0.0113245
0.00787034
0.00524219
0.00354249
0.00268594
0.00241843
0.0024464
0.00256825
0.00269022
0.00278134
0.00283807
0.00286722
0.00287873
0.00288426
0.00289336
0.00291049
0.00293433
0.00295658
0.00296223
0.00293191
0.00284672
0.00269572
0.00248332
0.00222658
0.00192899
0.0015525
0.00105898
0.000447609
8.56055e-05
0.0198937
0.020637
0.0203474
0.0182343
0.0146285
0.0107434
0.00740997
0.00494651
0.00340872
0.00267229
0.00246916
0.00251939
0.00264233
0.00275699
0.00283792
0.00288391
0.00290312
0.00290663
0.00290686
0.00291476
0.00293642
0.0029718
0.00301293
0.00304362
0.00304174
0.00298421
0.00285515
0.00265616
0.00240896
0.00212826
0.00176918
0.00125781
0.000606517
0.00021213
0.0199047
0.0206377
0.0201621
0.0178326
0.0141267
0.0102733
0.00704932
0.00472732
0.00332266
0.00267992
0.0025234
0.00258715
0.00270779
0.00281408
0.00288461
0.00291983
0.00292879
0.00292352
0.00291729
0.00292244
0.00294689
0.00299223
0.00305107
0.00310622
0.00313282
0.00310357
0.00299741
0.00281202
0.00257315
0.00231264
0.00198773
0.00147362
0.000792196
0.000435644
0.0199316
0.0206405
0.0199991
0.0174896
0.0137161
0.00990135
0.00677406
0.00457092
0.00327361
0.00270251
0.00257867
0.00264949
0.00276561
0.00286317
0.00292362
0.00294849
0.00294735
0.0029329
0.00291935
0.00292045
0.00294614
0.00299988
0.00307512
0.00315384
0.00320848
0.00320755
0.00312455
0.00295228
0.00271861
0.00247446
0.00219586
0.00170295
0.00099687
0.000757713
0.0199692
0.0206482
0.0198626
0.017206
0.0133901
0.00961705
0.00657276
0.00446689
0.00325386
0.00273582
0.00263357
0.00270662
0.00281682
0.00290574
0.00295683
0.00297213
0.00296143
0.00293785
0.00291654
0.00291275
0.00293855
0.00299938
0.00308969
0.00319075
0.00327243
0.00329919
0.00323911
0.00307938
0.00284783
0.00261267
0.00238442
0.00194233
0.00120934
0.00113778
0.0200137
0.0206634
0.0197555
0.0169813
0.0131429
0.00941167
0.00643651
0.00440752
0.00325807
0.0027772
0.00268747
0.00275899
0.00286232
0.00294299
0.00298561
0.00299237
0.00297299
0.00294079
0.00291185
0.00290302
0.00292846
0.00299556
0.00309976
0.00322167
0.00332875
0.00338167
0.00334351
0.00319571
0.002964
0.00273108
0.00254813
0.00217819
0.001418
0.00151523
0.0200549
0.0206877
0.0196796
0.0168141
0.0129689
0.00927828
0.00635869
0.00438742
0.00328278
0.00282519
0.00274028
0.00280713
0.00290288
0.00297571
0.00301075
0.00301004
0.00298308
0.00294328
0.00290762
0.00289454
0.00292012
0.00299342
0.00311064
0.00325173
0.00338186
0.00345836
0.00343996
0.00330293
0.00306988
0.00283351
0.00268657
0.00239993
0.00161638
0.00184184
0.0200933
0.020722
0.0196361
0.0167026
0.0128636
0.00921153
0.00633465
0.00440319
0.00332611
0.00287931
0.00279236
0.00285166
0.00293907
0.0030042
0.00303229
0.00302502
0.00299174
0.00294599
0.00290559
0.00289033
0.00291775
0.00299805
0.00312784
0.00328627
0.00343644
0.00353275
0.00353059
0.00340222
0.00316742
0.00292492
0.00280309
0.0026009
0.0018031
0.00208507
0.0201296
0.020767
0.0196254
0.0166446
0.0128228
0.00920746
0.0063615
0.00445328
0.0033876
0.0029403
0.00284494
0.00289362
0.00297151
0.00302835
0.00304938
0.00303617
0.0029981
0.00294908
0.00290741
0.00289349
0.00292566
0.00301464
0.00315692
0.00333068
0.00349714
0.00360832
0.00361739
0.00349434
0.0032577
0.0030097
0.00290109
0.00277711
0.00197898
0.00222537
0.0201645
0.0208228
0.0196471
0.0166373
0.012843
0.00926279
0.00643763
0.00453806
0.00346738
0.00301233
0.00290272
0.0029359
0.0030004
0.00304698
0.00306109
0.00304305
0.00300226
0.00295292
0.00291367
0.00290518
0.0029461
0.00304694
0.00320314
0.0033911
0.00356991
0.00368948
0.00370219
0.0035798
0.00334127
0.00309128
0.00299018
0.00292665
0.00214524
0.00225597
0.0201986
0.0208892
0.0196991
0.016676
0.0129171
0.00937038
0.00655974
0.00466258
0.00358343
0.00310631
0.00297077
0.00298102
0.00302782
0.00306233
0.00306927
0.00304726
0.00300543
0.00295826
0.00292491
0.0029261
0.00298035
0.0030971
0.00326978
0.00347214
0.00366071
0.00378345
0.00379256
0.0036623
0.003417
0.00316767
0.00307667
0.00305279
0.00230236
0.00219149
0.0202321
0.0209584
0.0197689
0.0167511
0.0130444
0.00953992
0.00674429
0.004841
0.00373959
0.00322662
0.00305387
0.00303344
0.00305752
0.00307835
0.00307701
0.00305144
0.00301004
0.00296765
0.00294403
0.00295982
0.00303267
0.00316997
0.00336187
0.00357856
0.00377359
0.00389327
0.0038906
0.0037441
0.00348654
0.00323789
0.00316045
0.00317287
0.00243324
0.00205798
0.0202662
0.0210321
0.0198571
0.0168618
0.0132219
0.00976927
0.00699148
0.00507617
0.00394099
0.00337982
0.00315908
0.00309973
0.00309632
0.00310042
0.00308923
0.00306013
0.0030205
0.00298594
0.00297657
0.0030126
0.00310989
0.00327238
0.00348563
0.00371532
0.00391185
0.00402043
0.00399625
0.00382441
0.00354931
0.00330167
0.00324038
0.00328364
0.00254823
0.00187647
0.0203042
0.0211133
0.0199645
0.0170091
0.0134419
0.0100538
0.00730189
0.0053722
0.00419461
0.00357481
0.00329587
0.00318868
0.00315296
0.00313609
0.00311336
0.00308054
0.00304414
0.0030211
0.00303137
0.00309391
0.00322158
0.00341315
0.00364824
0.00388738
0.00407786
0.00416482
0.00410754
0.00390073
0.00360352
0.00335866
0.00331439
0.00336936
0.00264336
0.00166258
0.0203504
0.0212057
0.0200923
0.0171927
0.0137007
0.0103912
0.0076767
0.00573424
0.00450898
0.00382231
0.00347558
0.0033132
0.00323955
0.00319726
0.00316074
0.00312387
0.00309234
0.00308541
0.00312152
0.00321712
0.00338024
0.00360286
0.0038574
0.0040989
0.00427222
0.00432394
0.00422006
0.00396851
0.00364605
0.00340418
0.00337927
0.00343362
0.00271239
0.00142935
0.0204103
0.021314
0.0202423
0.0174109
0.0139991
0.0107812
0.0081169
0.00616728
0.00489239
0.00413285
0.00371093
0.00348848
0.00337171
0.00329997
0.00324748
0.00320638
0.00318195
0.00319672
0.0032653
0.00339978
0.00360122
0.00385317
0.00412019
0.00435209
0.0044925
0.00449182
0.00432617
0.00402094
0.00367304
0.0034397
0.00343164
0.00346345
0.00274497
0.00119218
0.0204913
0.0214442
0.0204173
0.0176635
0.0143394
0.011221
0.00861931
0.00667262
0.00534871
0.00451432
0.00401792
0.00373318
0.00356928
0.00346538
0.00339542
0.00335068
0.00333692
0.00337969
0.00348658
0.00366319
0.00390148
0.00417525
0.00444124
0.00464519
0.00473152
0.00465768
0.00441443
0.00404911
0.00367973
0.00346166
0.00346285
0.0034625
0.00273115
0.000960974
0.0206022
0.0216041
0.0206216
0.0179512
0.0147282
0.0117022
0.00916935
0.00723705
0.00587758
0.00498039
0.0044152
0.00406952
0.00385754
0.00372041
0.00363286
0.00358645
0.00359162
0.00366606
0.00381362
0.00403032
0.00429686
0.00457677
0.00481983
0.00496978
0.00497503
0.00480456
0.00446924
0.00404263
0.00366184
0.00346592
0.00346185
0.00342162
0.00265742
0.000741531
0.0207489
0.0218031
0.0208614
0.0182783
0.015161
0.0122302
0.00977121
0.00786889
0.00649273
0.00554804
0.00492414
0.00452328
0.00426586
0.00409721
0.00399399
0.00394899
0.00397843
0.00408829
0.00427457
0.00452146
0.00479762
0.00505729
0.00524556
0.00530725
0.00519929
0.00490838
0.00447158
0.00399184
0.00361356
0.00344826
0.00342596
0.00333045
0.00251022
0.000546713
0.0209427
0.0220517
0.0211456
0.0186467
0.0156357
0.0128117
0.0104399
0.00858418
0.00721053
0.00623667
0.00556883
0.00512363
0.00482749
0.00463251
0.00451815
0.00447895
0.00453664
0.00468018
0.00489369
0.00514834
0.00540195
0.00560213
0.00569283
0.00562457
0.00536899
0.00493848
0.00440192
0.00389117
0.0035368
0.00340527
0.00334684
0.00317345
0.00228239
0.000383339
0.0212042
0.0223605
0.0214851
0.0190582
0.0161627
0.0134606
0.0111915
0.00940081
0.00805106
0.00706956
0.00637714
0.00590362
0.00557996
0.00536746
0.00524879
0.00522038
0.00530511
0.00546842
0.00568142
0.00590403
0.00608669
0.0061744
0.00611474
0.00587054
0.00543717
0.00486146
0.00424652
0.00373699
0.00343095
0.00332414
0.00320201
0.0029257
0.00196728
0.000329918
0.0215568
0.0227495
0.0218908
0.0195297
0.0167604
0.014197
0.0120489
0.0103442
0.00904208
0.00807763
0.00738403
0.00690235
0.00656596
0.0063463
0.00622921
0.00621684
0.00630881
0.00645537
0.00661746
0.00674825
0.00679527
0.00670555
0.00643709
0.00597496
0.00535005
0.00464997
0.00400479
0.00353877
0.00329131
0.00317723
0.00295405
0.00255222
0.00153801
0.000299197
0.0220324
0.0232389
0.0223998
0.0200885
0.0174571
0.0150523
0.0130469
0.0114521
0.0102238
0.00930358
0.00863409
0.00816362
0.00782703
0.00760423
0.00748329
0.0074757
0.00752414
0.0075899
0.00762844
0.00759059
0.00742488
0.00708689
0.00655637
0.00585553
0.00506161
0.00429681
0.00368843
0.00329703
0.00309134
0.00291377
0.00255169
0.00200759
0.000997776
0.000256794
0.022679
0.0238767
0.0230568
0.0207769
0.0182988
0.016076
0.014238
0.0127786
0.0116505
0.0107995
0.0101737
0.00971882
0.00937705
0.00913335
0.00897578
0.00890267
0.00883726
0.00874075
0.0085693
0.00827541
0.0078147
0.00716545
0.00634964
0.00544141
0.00455795
0.00382007
0.00330011
0.0029876
0.00277239
0.00246566
0.00194617
0.00132809
0.000523391
0.000202714
0.023579
0.0247397
0.0239367
0.0216675
0.0193626
0.0173458
0.0156972
0.0143929
0.0133805
0.0126046
0.0120121
0.0115364
0.0111456
0.0108274
0.0105739
0.0103322
0.0100497
0.00968799
0.00920506
0.00856117
0.00773799
0.0067626
0.00571726
0.00471611
0.00387119
0.00324577
0.00283263
0.00255132
0.0022533
0.0017913
0.00117617
0.000527417
0.000237283
0.000148068
0.0248638
0.0259563
0.0251712
0.0228854
0.0207699
0.0189673
0.0175046
0.0163363
0.0154018
0.0146386
0.0139914
0.0134068
0.012882
0.0124011
0.0119363
0.0114127
0.0107998
0.0100601
0.00916589
0.00811396
0.00694979
0.00575897
0.00466022
0.0037457
0.00305579
0.00257193
0.00222577
0.00190981
0.0015014
0.000977227
0.000445021
0.000207472
0.000105158
8.73077e-05
0.0268493
0.027783
0.0269926
0.0246027
0.0226148
0.0209299
0.0195323
0.0183555
0.0173381
0.0164239
0.0155705
0.0147771
0.0140264
0.0132783
0.0124566
0.0115284
0.0104708
0.00927932
0.00798108
0.00664512
0.00536342
0.00423277
0.00332584
0.00263876
0.00213727
0.00176055
0.00143071
0.00107323
0.00066321
0.000303143
0.000133234
8.2312e-05
4.36756e-05
3.7463e-05
0.0298746
0.0304029
0.0294196
0.0264851
0.0242898
0.0223969
0.0207694
0.0193016
0.017957
0.0167239
0.0155802
0.0144966
0.0134259
0.0122479
0.0109819
0.00963811
0.0082405
0.00683234
0.00549349
0.00429506
0.00329453
0.00251819
0.0019292
0.0014798
0.00113028
0.000837133
0.000565839
0.000305578
0.000156168
7.37605e-05
4.13924e-05
2.97037e-05
1.55306e-05
1.11321e-05
0.035343
0.032246
0.0298629
0.0251956
0.0219105
0.0193394
0.017251
0.015472
0.0139059
0.0125042
0.0112287
0.00999012
0.00875079
0.00758598
0.00648567
0.00544636
0.00446808
0.00355389
0.00272504
0.00203025
0.00146415
0.00100955
0.000662153
0.000411712
0.000240433
0.000133034
7.92923e-05
4.30555e-05
2.26353e-05
1.22798e-05
9.10149e-06
7.29531e-06
3.78041e-06
2.14848e-06
0.0266086
0.0172708
0.0110362
0.00788042
0.0073837
0.00740919
0.00739576
0.00744341
0.00752229
0.0075773
0.0075765
0.00750041
0.00730662
0.00695529
0.00640994
0.00563294
0.00460684
0.00339258
0.00214317
0.00108486
0.000416154
0.000116821
2.97296e-05
3.23176e-05
3.19288e-05
2.72215e-05
2.22431e-05
1.6672e-05
1.37698e-05
1.29329e-05
1.09221e-05
6.26111e-06
1.82262e-06
2.16741e-07
0.00184812
0.00340558
0.00739058
0.0101156
0.0109513
0.0104748
0.00243361
0.00476764
0.00982481
0.0125913
0.0130427
0.0122252
0.00292142
0.00637463
0.0123884
0.0149861
0.0150798
0.0141139
0.00331518
0.00816391
0.0149232
0.0172506
0.0171647
0.016337
0.00363642
0.0100583
0.0172967
0.0194149
0.0194295
0.0189764
0.00392755
0.0119659
0.0194218
0.0216241
0.0218565
0.0217929
0.00422851
0.0136974
0.0214896
0.0238824
0.0243533
0.0245178
0.00446896
0.0153448
0.0235264
0.0261191
0.0268054
0.0269732
0.00465097
0.0169572
0.0254924
0.0282003
0.0288802
0.0290275
0.00479075
0.0185257
0.0273679
0.0301346
0.0306065
0.0305655
0.00489201
0.0200405
0.029093
0.0316907
0.0319117
0.0315374
0.00492476
0.0214829
0.0307357
0.0329162
0.0327812
0.0319662
0.00483944
0.0227088
0.0319846
0.0338009
0.0332329
0.0319291
0.00476655
0.0239177
0.0329563
0.0343604
0.0333192
0.0315306
0.00471121
0.0248358
0.0336521
0.0346263
0.0331099
0.0308808
0.00506527
0.0256104
0.0341072
0.0346441
0.0326794
0.0300787
0.00575025
0.0262352
0.0343549
0.0344627
0.0320947
0.0292006
0.00648598
0.0266846
0.0344222
0.0341279
0.0314112
0.0283007
0.00724205
0.0269616
0.0343333
0.0336781
0.0306706
0.0274142
0.00801365
0.0270686
0.0341125
0.0331437
0.0299005
0.0265573
0.00876184