/*--------------------------------*- C++ -*----------------------------------*\
| =========                 |                                                 |
| \\      /  F ield         | OpenFOAM: The Open Source CFD Toolbox           |
|  \\    /   O peration     | Version:  v2012                                 |
|   \\  /    A nd           | Website:  www.openfoam.com                      |
|    \\/     M anipulation  |                                                 |
\*---------------------------------------------------------------------------*/
FoamFile
{
    version     2.0;
    format      ascii;
    class       volScalarField;
    location    "545";
    object      nut;
}
// * * * * * * * * * * * * * * * * * * * * * * * * * * * * * * * * * * * * * //

dimensions      [0 2 -1 0 0 0 0];


internalField   nonuniform List<scalar> 
6018
(
4.0703e-05
4.76493e-05
5.44628e-05
6.11758e-05
6.78279e-05
7.45353e-05
8.14907e-05
8.89284e-05
9.71141e-05
0.000106364
0.000117071
0.000129747
0.00014507
0.000163968
0.000187751
0.000218291
0.000258302
0.000311795
0.0003849
0.00048747
0.00019692
0.000225953
0.000257773
0.000292573
0.000330535
0.000371644
0.000415988
0.000464265
0.000517585
0.000577301
0.000645094
0.000723109
0.000814137
0.000921832
0.00105119
0.0012096
0.00140829
0.00166586
0.00202079
0.00256277
0.000754182
0.000850347
0.000945833
0.00104017
0.00113327
0.00122566
0.0013184
0.00141302
0.0015112
0.00161467
0.00172516
0.00184454
0.00197485
0.00211795
0.00227547
0.00244866
0.00263767
0.00283997
0.00304832
0.00324611
0.00151218
0.00163078
0.00174055
0.0018429
0.00193951
0.00203211
0.00212237
0.00221173
0.00230137
0.00239218
0.0024848
0.00257953
0.00267634
0.00277498
0.0028747
0.00297406
0.00307106
0.00316314
0.00324767
0.00332256
0.00203935
0.00213346
0.00221934
0.00229922
0.00237488
0.00244771
0.00251867
0.00258846
0.00265748
0.0027259
0.00279373
0.00286077
0.00292671
0.00299118
0.00305376
0.00311403
0.00317173
0.00322684
0.00327976
0.00333139
0.00218472
0.00224745
0.0023078
0.00236724
0.00242671
0.00248675
0.00254769
0.00260964
0.00267261
0.00273623
0.00280055
0.00286515
0.00292944
0.00299282
0.00305469
0.00311452
0.00317195
0.00322693
0.00327979
0.00333139
0.00192687
0.00196201
0.00200156
0.0020459
0.00209514
0.00214932
0.00220846
0.00227251
0.00234371
0.00242147
0.00250474
0.00259282
0.00268501
0.00278048
0.00287801
0.00297591
0.00307199
0.00316353
0.0032478
0.00332258
0.0012571
0.00126578
0.00128321
0.00130862
0.00134129
0.00138097
0.00143156
0.00149561
0.0015709
0.00165741
0.00175552
0.001866
0.00198982
0.00212811
0.00228213
0.00245282
0.00264004
0.00284115
0.00304878
0.0032462
0.000402405
0.000398413
0.000400984
0.000408634
0.000420352
0.000440031
0.000468251
0.000503989
0.000547576
0.000599808
0.00066193
0.000735702
0.000823497
0.000928687
0.00105613
0.00121306
0.00141057
0.00166724
0.00202157
0.00256306
7.49234e-05
7.38769e-05
7.40387e-05
7.55944e-05
7.83394e-05
8.21564e-05
8.69811e-05
9.28604e-05
9.9915e-05
0.000108349
0.00011847
0.000130721
0.000145735
0.00016441
0.000188031
0.000218457
0.000258391
0.000311836
0.000384913
0.000487471
3.40566e-07
4.30628e-07
4.38208e-07
3.62583e-07
2.37197e-07
1.25428e-07
5.84353e-08
2.90909e-08
2.22684e-08
3.77855e-08
1.02179e-07
2.1989e-07
3.4997e-07
4.41715e-07
4.66137e-07
4.62404e-07
4.54077e-07
4.67697e-07
5.17672e-07
5.62299e-07
5.84767e-07
6.05525e-07
6.38451e-07
6.39139e-07
6.22592e-07
6.93126e-07
1.36508e-06
2.6629e-06
4.98611e-06
8.60315e-06
1.35737e-05
1.96933e-05
2.65077e-05
3.35925e-05
9.73981e-06
8.07339e-06
5.35796e-06
3.32071e-06
2.07381e-06
1.32193e-06
8.70898e-07
6.22157e-07
5.77205e-07
1.17946e-06
3.87192e-06
8.26309e-06
1.21106e-05
1.34559e-05
1.29363e-05
1.29701e-05
1.41122e-05
1.68112e-05
2.02296e-05
2.34062e-05
2.50761e-05
2.69908e-05
3.11934e-05
3.63357e-05
4.21653e-05
4.91798e-05
5.76741e-05
6.76021e-05
7.91421e-05
9.2682e-05
0.000108459
0.000126706
0.000147485
0.000170623
6.16611e-05
5.97509e-05
5.04445e-05
3.50609e-05
2.24565e-05
1.44828e-05
9.89074e-06
7.54241e-06
7.54559e-06
1.45105e-05
4.47737e-05
9.35396e-05
0.000137844
0.000162898
0.00017875
0.000176738
0.000176303
0.000180877
0.000178685
0.000171767
0.000164773
0.000160631
0.000161558
0.000167841
0.000179489
0.000197001
0.00022115
0.000252796
0.000293182
0.000343691
0.000405715
0.000480146
0.000565188
0.000657912
0.000107977
0.000114131
0.000109507
9.32745e-05
7.01547e-05
4.96083e-05
3.56943e-05
2.86271e-05
3.21358e-05
6.85905e-05
0.000185028
0.000334461
0.000448215
0.000518004
0.000514713
0.000462148
0.000418415
0.000388016
0.000360953
0.000337291
0.00032115
0.000316453
0.000325057
0.000347627
0.000384771
0.000437618
0.00050745
0.000595134
0.000701
0.00082363
0.00095892
0.00110134
0.0012445
0.00138269
0.000151319
0.000162666
0.000161502
0.000149059
0.000125491
9.78785e-05
7.56824e-05
6.77164e-05
0.000102203
0.000245736
0.000464105
0.000645741
0.000741807
0.000745018
0.000699263
0.000623972
0.000580194
0.000538808
0.00049851
0.000473746
0.000468599
0.00048533
0.000525107
0.000588597
0.000675968
0.00078642
0.000917411
0.00106435
0.00122125
0.00138092
0.00153643
0.00168222
0.00181482
0.00193353
0.000218373
0.000233638
0.000231087
0.000213837
0.000185272
0.000152269
0.000128839
0.000149127
0.000297822
0.000570839
0.00080919
0.000934581
0.000938282
0.000842798
0.000771229
0.00072862
0.000691734
0.000639004
0.00060837
0.000605155
0.000631519
0.000687836
0.000773066
0.000884492
0.0010173
0.0011646
0.00131822
0.00146998
0.00161296
0.0017425
0.00185661
0.00195571
0.00204153
0.00211683
0.000324549
0.000343419
0.000333378
0.000299642
0.00025634
0.000218899
0.000221328
0.000345367
0.000628204
0.000925757
0.00109424
0.00106161
0.000986592
0.000924213
0.000885647
0.000821464
0.000758382
0.000722072
0.000719069
0.000750934
0.000815912
0.000909613
0.00102518
0.00115368
0.00128512
0.00141007
0.00152133
0.00161491
0.00169017
0.00174912
0.0017952
0.00183244
0.00186465
0.00189485
0.000483309
0.000497355
0.000466658
0.000404765
0.000345183
0.000327016
0.00042009
0.000672862
0.00100589
0.00120426
0.00120022
0.00114167
0.00108771
0.00103023
0.000933472
0.000857901
0.00081364
0.000806066
0.000835365
0.000896752
0.000981759
0.0010794
0.00117764
0.00126539
0.00133432
0.00138008
0.00140238
0.00140397
0.00138936
0.00136352
0.00133182
0.0013002
0.00127493
0.00126011
0.000689898
0.00068581
0.000618069
0.000527304
0.000476322
0.00053443
0.000752906
0.00104792
0.00129341
0.00136675
0.00131678
0.00126618
0.00114729
0.0010321
0.000940668
0.000883849
0.00086544
0.000882986
0.000928349
0.00098917
0.00105122
0.00110099
0.00112809
0.00112693
0.00109696
0.0010417
0.000967099
0.000880195
0.000787695
0.000695593
0.000609105
0.000532126
0.000468699
0.000426649
0.000921509
0.000882286
0.000774258
0.000681413
0.000695598
0.00084682
0.00109508
0.00133657
0.00147709
0.00148335
0.00139112
0.00125655
0.00112117
0.00101074
0.000936625
0.000901498
0.000900202
0.000921468
0.00095023
0.000970824
0.00097042
0.000941546
0.000883131
0.000799798
0.000699954
0.000593242
0.000488367
0.000391549
0.000306543
0.000234793
0.000176252
0.000131686
0.000100485
8.15696e-05
2.10816e-09
1.17739e-08
2.8223e-08
4.84324e-08
9.67567e-08
2.11495e-07
1.38993e-08
1.6027e-07
1.18178e-06
4.1179e-06
7.42864e-06
9.55143e-06
3.26826e-08
8.61146e-07
9.77732e-06
2.59952e-05
4.25778e-05
5.52361e-05
4.77744e-08
2.12451e-06
1.72437e-05
4.18503e-05
6.82412e-05
9.12345e-05
5.85609e-08
3.69091e-06
2.34233e-05
5.54096e-05
9.19941e-05
0.000125477
9.14249e-08
6.16031e-06
3.23733e-05
7.61919e-05
0.000129443
0.000179782
4.08488e-07
1.00169e-05
4.66499e-05
0.000110897
0.000191359
0.000267928
1.4141e-06
1.58454e-05
6.99501e-05
0.000169259
0.000294445
0.000408753
3.55557e-06
2.47514e-05
0.000108945
0.000266597
0.000456113
0.00061046
6.68091e-06
3.86097e-05
0.000175019
0.000422227
0.000687147
0.000864174
0.00114585
0.00105543
0.000937117
0.000898019
0.000982772
0.00116693
0.00137842
0.0015296
0.00156664
0.00149292
0.0013544
0.00120255
0.00107159
0.000977737
0.000923057
0.000900477
0.000896869
0.000896721
0.000886141
0.00085627
0.00080497
0.000736141
0.000657122
0.000575369
0.000495432
0.000420615
0.000351713
0.000288451
0.000230277
0.000176695
0.000127626
8.3756e-05
4.58113e-05
1.99492e-05
0.00133204
0.00121111
0.00112752
0.00114475
0.00126121
0.00142568
0.00156586
0.00162072
0.00157026
0.00144
0.00127868
0.00112911
0.0010144
0.000939646
0.000897729
0.000875527
0.000858827
0.000836533
0.000803348
0.000759848
0.000710257
0.000659424
0.000610495
0.000564134
0.000519383
0.000474915
0.000429373
0.00038257
0.00033547
0.000290001
0.00023311
0.000154182
4.6001e-05
3.70534e-06
0.00147894
0.00136938
0.00132803
0.00137733
0.00148753
0.00160089
0.00165888
0.00162755
0.00151246
0.00135091
0.00118772
0.00105391
0.000960375
0.000902823
0.000869482
0.000847863
0.000829024
0.000809246
0.000789161
0.000771
0.000756103
0.000743674
0.00073108
0.000715062
0.000693339
0.000665364
0.00063395
0.000607742
0.000583138
0.000524837
0.000450231
0.000297516
6.66276e-05
2.55198e-06
0.00160683
0.00152739
0.00151626
0.0015695
0.00164596
0.0016936
0.00167266
0.0015735
0.00141896
0.00124924
0.00110027
0.000990398
0.00092054
0.000881784
0.000863234
0.000857021
0.00085949
0.000869673
0.000886867
0.000908612
0.000930375
0.000946447
0.000951625
0.000942925
0.000921241
0.000893072
0.000863683
0.000813886
0.000761836
0.000715659
0.000639897
0.000415828
8.55706e-05
2.24386e-06
0.00172739
0.00167335
0.00167346
0.00170797
0.00173483
0.00171444
0.00162741
0.0014832
0.00131347
0.00115459
0.00103145
0.00095176
0.000910864
0.000899774
0.000910825
0.000939293
0.000981821
0.00103413
0.00108978
0.00114044
0.00117751
0.00119403
0.00118658
0.00115698
0.00111711
0.00106023
0.00099576
0.000936388
0.000888019
0.000841837
0.000749272
0.000483322
9.88933e-05
2.06216e-06
0.00183387
0.00179391
0.00178848
0.00178973
0.00176096
0.0016798
0.00154551
0.00137997
0.00121628
0.00108319
0.000995397
0.000953601
0.000951321
0.000980989
0.00103607
0.00111025
0.00119536
0.00128082
0.00135461
0.00140529
0.00142422
0.00140751
0.00135809
0.00128725
0.00119807
0.0011159
0.00104128
0.00097799
0.000931216
0.00088507
0.000790157
0.000512119
0.0001054
1.80529e-06
0.00182741
0.00174146
0.00174288
0.00181782
0.00173663
0.00160905
0.00144894
0.00128408
0.00114412
0.00104935
0.00100642
0.00101216
0.00105928
0.00113927
0.00124247
0.00135678
0.00146741
0.00155866
0.00161618
0.0016291
0.00159155
0.00150896
0.00139159
0.00127847
0.00117107
0.00107731
0.00100159
0.000944312
0.000904677
0.000867157
0.000781337
0.000507684
0.000103888
1.53749e-06
0.00172129
0.0016402
0.0016599
0.00179739
0.00167757
0.00152174
0.00135714
0.0012125
0.00111147
0.00106587
0.00107711
0.00113852
0.00123981
0.00136786
0.00150656
0.00163717
0.00174031
0.00179856
0.00179792
0.00172895
0.00159356
0.0014401
0.00129446
0.00116404
0.00105243
0.000963488
0.000899175
0.000856016
0.000830421
0.000807769
0.000734918
0.00047173
9.24206e-05
1.5003e-06
0.00160782
0.00154519
0.00159379
0.00175203
0.00160059
0.00143606
0.00128712
0.00117951
0.00112938
0.00114187
0.0012128
0.0013301
0.00147747
0.00163478
0.00177948
0.00188887
0.00194247
0.00192287
0.0018143
0.00161299
0.00142068
0.00124541
0.00109452
0.000969916
0.000875031
0.000805639
0.000759481
0.000734469
0.000726275
0.000720025
0.000657031
0.000408119
7.58409e-05
1.46987e-06
0.00150344
0.00146832
0.00155379
0.00168537
0.00152238
0.00136831
0.00125215
0.00119407
0.0012035
0.00127781
0.00140467
0.0015649
0.00173446
0.00188704
0.00199686
0.00204104
0.0019999
0.00185254
0.00158274
0.00134242
0.00113405
0.000964557
0.000831481
0.000733591
0.00066684
0.000623766
0.00060019
0.000594605
0.00060537
0.000613829
0.000560326
0.000333418
5.773e-05
1.37121e-06
0.00141621
0.00141378
0.00154217
0.00161511
0.00145684
0.00132959
0.00125933
0.0012602
0.00133134
0.00146066
0.00162693
0.00180263
0.00195743
0.0020625
0.00209303
0.00202892
0.00185019
0.00153866
0.00123001
0.00098482
0.000790523
0.000653582
0.000557252
0.000494433
0.000457581
0.000439768
0.000437926
0.000452313
0.000482104
0.000503897
0.000458832
0.000256145
4.04234e-05
1.18314e-06
0.00134939
0.00138382
0.00156819
0.00155268
0.00141398
0.00132727
0.00131257
0.00137335
0.00149808
0.00166385
0.00184032
0.0019934
0.00209059
0.00210512
0.0020172
0.00181311
0.00148207
0.00112899
0.000829887
0.000620321
0.000478505
0.000387817
0.000331762
0.000299367
0.000283923
0.000282229
0.000294978
0.000325267
0.000370435
0.000401343
0.000354788
0.000179484
2.42825e-05
9.93511e-07
0.00130535
0.00138338
0.00164479
0.00150737
0.00140121
0.00136449
0.00140616
0.00151914
0.00167863
0.00185173
0.00200113
0.00209054
0.00209046
0.00198106
0.00175266
0.00140558
0.00103717
0.00071951
0.000493767
0.000360472
0.00028499
0.000240395
0.000211293
0.000192442
0.000180828
0.000178063
0.00018954
0.000222958
0.000271398
0.0002978
0.000242369
0.00010212
1.2753e-05
8.0351e-07
0.00128537
0.00141428
0.00160537
0.00148371
0.00141918
0.00143479
0.00152769
0.00167531
0.00184225
0.00198798
0.00207263
0.00206347
0.00193986
0.00169595
0.00134664
0.000948507
0.000627574
0.000417359
0.000304623
0.000247146
0.000214062
0.000191551
0.00017332
0.000156404
0.000140201
0.000127885
0.000126957
0.000146401
0.000179218
0.00018655
0.000135615
5.28156e-05
6.80838e-06
5.67863e-07
0.00129219
0.00148921
0.00157544
0.00148417
0.00146607
0.00152954
0.00165871
0.0018167
0.00196006
0.00204496
0.00203509
0.00190763
0.00165735
0.00130161
0.000897096
0.000564926
0.000370756
0.000278568
0.000234359
0.000208798
0.000191025
0.000176768
0.000163266
0.000148162
0.000130143
0.000110766
9.61335e-05
9.49681e-05
0.000105221
0.000102973
7.09966e-05
2.74447e-05
3.70529e-06
3.42572e-07
0.00132974
0.00162183
0.0015617
0.00150616
0.00153251
0.00163474
0.0017796
0.00192119
0.00201197
0.002011
0.00189247
0.00165031
0.00130202
0.000899259
0.000545647
0.000347801
0.000266137
0.000229875
0.000208414
0.000192828
0.000180513
0.000170053
0.000159788
0.000147573
0.00013125
0.00010999
8.63388e-05
6.76734e-05
6.02464e-05
5.56062e-05
3.78572e-05
1.48418e-05
2.03639e-06
1.75611e-07
0.00139961
0.00164913
0.00156349
0.0015461
0.00161075
0.00173556
0.00187367
0.00197414
0.00199099
0.00189351
0.00167328
0.00134656
0.000958568
0.000595461
0.000358827
0.000263668
0.000230439
0.000211691
0.000197119
0.00018476
0.000174216
0.000165153
0.000156689
0.000147215
0.0001345
0.000116339
9.17781e-05
6.37178e-05
4.17984e-05
3.22368e-05
2.13774e-05
8.44343e-06
1.11982e-06
7.81092e-08
0.00151539
0.00163832
0.00157856
0.00159668
0.00169034
0.00181959
0.0019301
0.00197085
0.0019043
0.00171664
0.00142017
0.00105578
0.000690182
0.000416793
0.00028203
0.000237645
0.000221074
0.000208238
0.000195769
0.000183729
0.000172493
0.000162512
0.000153669
0.000145155
0.000135304
0.000121873
0.0001025
7.56346e-05
4.46033e-05
2.37014e-05
1.35621e-05
5.15153e-06
6.2441e-07
3.28178e-08
0.00169811
0.00163635
0.00160499
0.00165294
0.00176226
0.00187863
0.0019452
0.00191675
0.00177069
0.00151397
0.00117655
0.000816744
0.000512265
0.000330125
0.000259627
0.000238691
0.000228667
0.000218369
0.000205865
0.000192227
0.000178231
0.000165129
0.000153419
0.000143131
0.000133425
0.000122626
0.000108576
8.87554e-05
6.09329e-05
2.87586e-05
1.16895e-05
3.70549e-06
3.82661e-07
1.64794e-08
0.00171268
0.00164138
0.00163646
0.00170863
0.00182003
0.00190908
0.00192149
0.0018237
0.00161198
0.00131048
0.00096583
0.000641353
0.000410246
0.000299542
0.000266306
0.000257969
0.000252029
0.000243248
0.000230025
0.000213305
0.00019472
0.000176592
0.000159755
0.000144938
0.000132204
0.000120498
0.000108208
9.3216e-05
7.32085e-05
4.59648e-05
1.67742e-05
3.94555e-06
3.1547e-07
1.44986e-08
0.00170659
0.00165272
0.00167191
0.00175912
0.00186034
0.00191173
0.00186667
0.00170761
0.00144915
0.00112852
0.000798405
0.000525474
0.000363157
0.000303
0.00029251
0.000292913
0.00029053
0.000282831
0.000268326
0.000248309
0.000224833
0.000200136
0.000176102
0.000154419
0.00013592
0.00012014
0.000105919
9.14849e-05
7.47447e-05
5.39262e-05
2.66433e-05
5.79938e-06
4.1929e-07
2.22018e-08
0.00170346
0.00166771
0.00170834
0.00180153
0.00188269
0.00189064
0.00179078
0.00158307
0.00129649
0.000974974
0.000674917
0.000458631
0.000353993
0.00032933
0.000334956
0.000343132
0.000344504
0.000337846
0.000321905
0.000298156
0.000268916
0.000236869
0.000204739
0.000174394
0.000147865
0.00012548
0.000106581
8.96666e-05
7.27083e-05
5.36491e-05
3.21671e-05
8.60128e-06
6.06933e-07
3.50271e-08
0.00170324
0.001686
0.00174374
0.00183464
0.0018887
0.00185165
0.00170374
0.00146101
0.00116147
0.000852173
0.000591172
0.000429666
0.000371301
0.000372917
0.000391939
0.000407903
0.000413454
0.000407987
0.000390807
0.000363477
0.000328427
0.000288551
0.000246957
0.000206686
0.000170182
0.000138895
0.000112973
9.13202e-05
7.19814e-05
5.27093e-05
3.20969e-05
1.12775e-05
7.8093e-07
5.09946e-08
0.00170601
0.00170699
0.00177677
0.00185851
0.00188123
0.00180098
0.00161374
0.0013483
0.00104703
0.000759052
0.000540993
0.000429035
0.000407587
0.000430119
0.00046136
0.00048531
0.000495556
0.000491318
0.000473362
0.000443023
0.00040267
0.000355227
0.000304025
0.000252625
0.000204418
0.000162003
0.000126641
9.79798e-05
7.42951e-05
5.31486e-05
3.2406e-05
1.27273e-05
1.07674e-06
6.54525e-08
0.00171176
0.00172991
0.00180674
0.00187406
0.0018637
0.00174428
0.00152666
0.00124839
0.000953558
0.000692746
0.000517908
0.000449189
0.000457596
0.000497758
0.000540465
0.000572485
0.000587985
0.000584654
0.000566536
0.000534137
0.00048959
0.000435594
0.000375379
0.000312717
0.000251718
0.000196218
0.00014893
0.000110724
8.04926e-05
5.57587e-05
3.38493e-05
1.41868e-05
1.47312e-06
7.34935e-08
0.00171986
0.00175391
0.00183351
0.00188276
0.00183951
0.00168613
0.00144618
0.00116251
0.000879971
0.000649551
0.000515919
0.000484216
0.000517131
0.000572421
0.000625418
0.000664633
0.000684743
0.000683721
0.000666104
0.000632701
0.000585439
0.000526629
0.000459043
0.000386185
0.000312435
0.000242654
0.00018121
0.000130741
9.137e-05
6.09517e-05
3.63403e-05
1.57394e-05
1.97062e-06
7.72467e-08
0.00173084
0.00177864
0.00185724
0.00188624
0.00181169
0.00162975
0.00137421
0.00109066
0.000824416
0.000625536
0.000529796
0.000529444
0.000582682
0.000650939
0.000712901
0.000758392
0.000782693
0.000784155
0.000767412
0.000733861
0.000685328
0.000623713
0.000551132
0.000470371
0.000385411
0.000301549
0.000224604
0.000159371
0.000108
6.94076e-05
4.028e-05
1.76853e-05
2.62918e-06
7.51365e-08
0.0017441
0.00180353
0.00184753
0.00188601
0.00178268
0.0015773
0.00131153
0.0010321
0.000784656
0.000616908
0.000555127
0.000581135
0.000651268
0.000730485
0.000799985
0.000850679
0.000878475
0.000882162
0.000866334
0.000833097
0.000784333
0.00072165
0.00064652
0.000560796
0.000467486
0.00037149
0.000279327
0.000197778
0.000131657
8.20356e-05
4.62074e-05
2.03591e-05
3.5974e-06
6.58115e-08
0.00175931
0.00182798
0.00178273
0.0018833
0.00175434
0.00153012
0.0012582
0.00098574
0.000758334
0.000620207
0.000588259
0.000636275
0.000720388
0.000808679
0.000884294
0.000939086
0.000969581
0.000975016
0.000959879
0.000927019
0.000878528
0.000815901
0.000740118
0.000652156
0.000553835
0.000449008
0.000343885
0.000246285
0.000163566
9.99523e-05
5.47399e-05
2.40133e-05
4.92672e-06
6.22578e-08
0.00177584
0.00185159
0.00173329
0.0018792
0.00172804
0.00148891
0.00121392
0.000950286
0.000743143
0.000632391
0.000626208
0.000692446
0.000788011
0.000883649
0.000964074
0.00102197
0.00105442
0.00106106
0.00104624
0.00101353
0.000965394
0.000903354
0.000828058
0.000739765
0.000639239
0.000529127
0.000414703
0.000303548
0.000204359
0.000124401
6.66859e-05
2.89501e-05
6.68776e-06
1.84909e-07
0.00179294
0.0017672
0.00169565
0.00186201
0.00170466
0.00145396
0.00117813
0.000924401
0.000736934
0.000650859
0.000666572
0.000747737
0.000852548
0.000954007
0.00103812
0.00109829
0.00113208
0.00113941
0.00112446
0.00109156
0.0010436
0.000982306
0.00090808
0.000820538
0.00071956
0.000606809
0.000486765
0.000366161
0.000253175
0.000156416
8.31586e-05
3.5553e-05
8.92436e-06
5.50657e-07
0.00181029
0.00170211
0.00166678
0.00184037
0.00168474
0.00142527
0.00115022
0.000906777
0.000737781
0.000673437
0.000707447
0.000800658
0.000912791
0.00101875
0.00110563
0.00116743
0.00120205
0.0012096
0.00119408
0.00116054
0.00111251
0.00105199
0.000979173
0.000892999
0.000792463
0.000678419
0.000555122
0.000429093
0.000307115
0.000196073
0.000105546
4.43984e-05
1.17394e-05
1.36408e-06
0.00182759
0.00165687
0.00164449
0.00182086
0.00166861
0.00140271
0.00112949
0.000896198
0.000744012
0.000698352
0.00074734
0.000850065
0.000967835
0.00107717
0.00116604
0.00122894
0.00126399
0.00127134
0.00125479
0.00122016
0.00117177
0.00111204
0.00104098
0.000956693
0.000857148
0.000742286
0.000616473
0.000487259
0.000361293
0.0002417
0.000134719
5.63078e-05
1.52696e-05
2.79977e-06
0.0018446
0.00162493
0.00162695
0.00180361
0.00165647
0.00138605
0.0011153
0.000891582
0.000754223
0.000724192
0.000785101
0.000895087
0.001017
0.00112869
0.00121889
0.00128243
0.00131754
0.00132431
0.00130627
0.00127011
0.0012211
0.00116225
0.00109334
0.00101154
0.000913568
0.000798181
0.00066969
0.000537462
0.000410312
0.000289027
0.000170749
7.23963e-05
1.96335e-05
4.86561e-06
0.00186116
0.00160149
0.00161291
0.00178789
0.00164842
0.00137504
0.00110708
0.000892002
0.000767269
0.000749853
0.000819859
0.000935069
0.00105975
0.00117289
0.00126377
0.00132748
0.00136229
0.00136809
0.00134813
0.00131006
0.00126027
0.00120245
0.00113617
0.00105749
0.000961771
0.000846349
0.000715033
0.000578938
0.000450646
0.000332384
0.000211744
9.39186e-05
2.49933e-05
7.29907e-06
0.00187713
0.00158399
0.00160128
0.00177272
0.00164448
0.00136944
0.00110431
0.000896707
0.00078226
0.000774508
0.000850979
0.000969519
0.00109569
0.00120936
0.00130024
0.0013636
0.00139767
0.00140212
0.00137987
0.00133967
0.00128914
0.00123267
0.00116952
0.00109454
0.00100166
0.000886846
0.000753014
0.000612391
0.000481492
0.000367255
0.000253352
0.000121568
3.15189e-05
9.71114e-06
0.0018436
0.00157073
0.00159137
0.00175725
0.00164465
0.00136904
0.00110661
0.000905129
0.000798546
0.000797582
0.000878021
0.000998093
0.00112448
0.00123772
0.00132782
0.00139016
0.00142293
0.00142557
0.00140083
0.00135865
0.00130781
0.00125322
0.00119371
0.00112283
0.00103311
0.0009194
0.000783719
0.000638698
0.000503965
0.000391947
0.000289808
0.000154816
3.94768e-05
1.17947e-05
0.00181215
0.00156044
0.00158217
0.00174098
0.00164888
0.00137366
0.00111369
0.000916893
0.000815725
0.000818745
0.000900752
0.00102059
0.0011459
0.00125761
0.0013459
0.0014063
0.00143694
0.00143727
0.00141021
0.00136681
0.00131666
0.00126479
0.00120941
0.00114276
0.00105608
0.000943578
0.000806748
0.000658184
0.000519566
0.000407591
0.00031668
0.000190809
4.92834e-05
1.3344e-05
0.00178637
0.00155214
0.00157314
0.00172382
0.0016571
0.00138319
0.00112541
0.000931838
0.000833674
0.000838033
0.000919274
0.00103701
0.00115996
0.00126869
0.00135358
0.00141054
0.00143789
0.00143546
0.00140719
0.00136433
0.00131651
0.00126846
0.00121757
0.00115493
0.0010707
0.000959007
0.000821464
0.000670598
0.000529215
0.000416408
0.000332923
0.000223982
6.12613e-05
1.42368e-05
0.00176496
0.00154497
0.00156407
0.0017057
0.00166922
0.00139751
0.00114175
0.000950138
0.0008529
0.000856822
0.000934912
0.00104785
0.00116529
0.00126185
0.00134893
0.00140156
0.00142538
0.00142082
0.00139304
0.00135274
0.00130906
0.00126598
0.00121982
0.00116051
0.00107743
0.000965154
0.000826663
0.000675449
0.000533191
0.000420212
0.000340689
0.000248091
7.51154e-05
1.44314e-05
0.00174604
0.00153801
0.00155463
0.00168637
0.00168488
0.00141633
0.00116296
0.000973379
0.000876357
0.000876483
0.000947703
0.00105268
0.001159
0.00124066
0.00133326
0.00138114
0.00140171
0.00139611
0.00137029
0.00133433
0.00129654
0.00125973
0.00121879
0.0011624
0.00107945
0.000965434
0.000825011
0.000672873
0.000530907
0.000419286
0.000342599
0.000259094
8.81011e-05
1.40212e-05
0.0017272
0.0015299
0.00154374
0.00166496
0.00170412
0.00144082
0.00119101
0.00100319
0.000904489
0.00089781
0.000958815
0.00105285
0.0011323
0.00122712
0.00130842
0.00135138
0.0013692
0.0013636
0.00134124
0.00131131
0.00128104
0.00125158
0.00121596
0.00116163
0.00107736
0.000960122
0.000816848
0.000663841
0.000523212
0.000414378
0.000341438
0.000265425
9.58297e-05
1.31715e-05
0.00170629
0.00151969
0.0015312
0.00164188
0.00172664
0.00147071
0.0012258
0.00103975
0.000937935
0.000922029
0.000969994
0.00104893
0.00111311
0.00121667
0.00127689
0.00131487
0.0013305
0.00132597
0.00130851
0.00128632
0.00126501
0.00124349
0.00121261
0.0011587
0.00107104
0.000948817
0.000801775
0.000648156
0.000510096
0.000405569
0.000337406
0.000268767
0.000102442
1.20153e-05
0.00168156
0.00150655
0.00151687
0.00161766
0.0017143
0.00150542
0.00126723
0.00108335
0.000977541
0.000950716
0.000983452
0.00102972
0.00110139
0.00118972
0.00124183
0.00127484
0.00128886
0.00128661
0.00127556
0.00126271
0.00125133
0.00123753
0.00120977
0.00115366
0.00105989
0.000930707
0.000779164
0.000625535
0.000491561
0.000393004
0.000330536
0.000268691
0.000107813
1.06515e-05
0.00165156
0.0014897
0.00150039
0.0015926
0.00167971
0.00154452
0.00131512
0.00113427
0.00102426
0.000985603
0.00099351
0.00101884
0.0010976
0.00116374
0.00120727
0.0012354
0.00124846
0.00124987
0.00124678
0.00124444
0.00124318
0.00123561
0.00120792
0.00114583
0.00104264
0.000904543
0.000748248
0.000595769
0.000467735
0.000376707
0.000320902
0.000262966
0.000111604
9.16279e-06
0.00161493
0.00146843
0.00148131
0.00156688
0.00164566
0.00158765
0.00136919
0.00119265
0.00107876
0.00101737
0.000985413
0.00101728
0.00110045
0.00114342
0.00117819
0.0012017
0.00121458
0.00122111
0.00122731
0.0012359
0.00124349
0.00123891
0.00120651
0.00113346
0.00101719
0.00086869
0.000708272
0.000558851
0.00043899
0.000357218
0.00030865
0.000233752
0.000113417
7.64705e-06
0.00157032
0.00144216
0.00145909
0.00153985
0.00161289
0.00161979
0.0014284
0.00125782
0.00110531
0.00101161
0.000988928
0.00102738
0.00110342
0.00113401
0.00116034
0.00117984
0.00119352
0.00120658
0.00122267
0.00124111
0.00125417
0.00124704
0.00120327
0.00111338
0.000980628
0.000821338
0.000658712
0.000515153
0.000405976
0.000335043
0.000293804
0.000209879
0.00011296
6.16763e-06
0.0015168
0.00141014
0.00143285
0.00151098
0.0015819
0.00155318
0.00141013
0.00124074
0.00110164
0.00102294
0.00100851
0.00105235
0.00112158
0.00114094
0.00115984
0.00117643
0.0011923
0.00121268
0.00123777
0.00126262
0.00127489
0.00125693
0.00119351
0.00108083
0.000929465
0.000760914
0.000599631
0.000465602
0.000369712
0.000310836
0.000261249
0.000191221
0.000109807
4.76189e-06
0.00145347
0.00137189
0.00140186
0.00147979
0.00153033
0.00148316
0.00136919
0.00123208
0.00111862
0.00105484
0.00104795
0.00109703
0.00115904
0.00116924
0.00118247
0.00119767
0.00121747
0.00124449
0.00127517
0.00129972
0.00130148
0.00126171
0.00116962
0.0010297
0.000860319
0.000686768
0.000532107
0.000411881
0.000331387
0.000285411
0.000229175
0.000177592
0.000103544
3.51258e-06
0.00138035
0.00132638
0.00136577
0.0014377
0.00146638
0.00143634
0.00135031
0.00124435
0.00115615
0.00110849
0.00111108
0.00116713
0.00121891
0.00122283
0.00123267
0.00124806
0.00127218
0.001303
0.0013325
0.00134607
0.00132406
0.00124997
0.00112158
0.000953696
0.000771228
0.000600041
0.000458554
0.000356402
0.000292752
0.000259669
0.000205497
0.000168625
9.38751e-05
2.46395e-06
0.00129842
0.001273
0.00132264
0.00137809
0.00141692
0.00140649
0.00134837
0.00127316
0.00121149
0.00118316
0.0011994
0.00126633
0.00130288
0.00130369
0.00131242
0.00132893
0.00135511
0.00138296
0.00139984
0.00138732
0.00132576
0.0012061
0.00103888
0.000848735
0.000663247
0.00050433
0.000382828
0.000301661
0.000255408
0.000234121
0.00018811
0.00016389
8.05406e-05
2.12087e-06
0.0012085
0.00121124
0.00126075
0.00132491
0.00137543
0.00138585
0.00135677
0.00131306
0.00128001
0.00127477
0.00130945
0.00139234
0.00141024
0.00141055
0.00141921
0.00143577
0.00145662
0.00146898
0.0014564
0.00139922
0.00128327
0.00111346
0.000914416
0.000715849
0.000541793
0.000405582
0.000309608
0.000250446
0.000220511
0.000208714
0.000174948
0.000162345
6.23763e-05
1.92353e-06
0.00111158
0.0011351
0.00119914
0.0012718
0.00133522
0.00136838
0.00136983
0.00135861
0.00135598
0.00137655
0.00143261
0.0015352
0.00153562
0.00153559
0.00154179
0.00155168
0.00155308
0.00153127
0.00146815
0.00134843
0.00117171
0.000961051
0.000749719
0.000563658
0.000416669
0.000311249
0.000242951
0.000204494
0.000188093
0.000182498
0.000163118
0.000137753
3.89601e-05
1.6511e-06
0.00100811
0.00105325
0.00113285
0.00121403
0.00129252
0.0013507
0.00138403
0.00140588
0.00143381
0.00147995
0.00155736
0.00167234
0.00166398
0.00165904
0.00165451
0.00164109
0.00160259
0.001523
0.00138885
0.0011995
0.000975765
0.000753238
0.00056011
0.000408723
0.000299939
0.000227996
0.00018508
0.000163809
0.000156848
0.000153486
0.000137424
9.31698e-05
1.69692e-05
1.30356e-06
0.000898175
0.000964474
0.00105961
0.00115044
0.00124722
0.00133269
0.00139784
0.00145003
0.00150407
0.00157623
0.00168581
0.0017789
0.00176102
0.00173999
0.00170764
0.00164585
0.00154052
0.00138169
0.00117302
0.000937746
0.000710938
0.00051984
0.000373823
0.000270158
0.000201483
0.00015935
0.000136435
0.000126802
0.000124248
0.00011886
9.14929e-05
3.20107e-05
6.35888e-06
9.52297e-07
0.000790305
0.000874114
0.000982206
0.00108405
0.00120039
0.00131074
0.00140201
0.00148305
0.00157099
0.00168227
0.00182678
0.00179821
0.00175517
0.00169976
0.0016097
0.00147235
0.00128452
0.00105827
0.00082156
0.000606682
0.00043426
0.000307
0.000219037
0.00016129
0.000125458
0.000104908
9.46712e-05
9.06986e-05
8.77867e-05
7.5963e-05
3.58961e-05
1.08193e-05
2.58791e-06
5.61605e-07
0.000662135
0.000778433
0.000899479
0.00101089
0.00115075
0.00129372
0.00142058
0.00153617
0.00165769
0.00173573
0.00167119
0.00159956
0.00151682
0.00140231
0.00123704
0.00103369
0.000814417
0.000607864
0.000435459
0.000304895
0.000212721
0.000150478
0.000110214
8.49981e-05
6.99615e-05
6.15837e-05
5.70103e-05
5.37583e-05
4.63132e-05
2.62477e-05
9.94564e-06
4.06212e-06
1.0791e-06
2.41011e-07
0.000573833
0.000703205
0.00082773
0.000950662
0.00110328
0.00125954
0.00139186
0.00138966
0.00129764
0.00120687
0.00111654
0.00102137