/*--------------------------------*- C++ -*----------------------------------*\
| =========                 |                                                 |
| \\      /  F ield         | OpenFOAM: The Open Source CFD Toolbox           |
|  \\    /   O peration     | Version:  v2012                                 |
|   \\  /    A nd           | Website:  www.openfoam.com                      |
|    \\/     M anipulation  |                                                 |
\*---------------------------------------------------------------------------*/
FoamFile
{
    version     2.0;
    format      ascii;
    class       volScalarField;
    location    "545";
    object      omega;
}
// * * * * * * * * * * * * * * * * * * * * * * * * * * * * * * * * * * * * * //

dimensions      [0 0 -1 0 0 0 0];


internalField   nonuniform List<scalar> 
6018
(
252.67
253.371
254.06
254.741
255.418
256.101
256.812
257.575
258.417
259.371
260.48
261.798
263.401
265.39
267.913
271.185
275.527
281.43
289.675
301.587
78.2391
75.7766
73.8286
72.303
71.1443
70.3625
69.9809
69.9519
70.2084
70.6943
71.3595
72.1517
73.0136
73.8808
74.6558
75.1829
75.2221
74.3857
71.887
66.3122
38.5682
37.4966
36.8062
36.438
36.3466
36.4934
36.843
37.3628
38.0272
38.8176
39.7213
40.7288
41.8308
43.0223
44.3106
45.7086
47.2438
48.9792
51.0415
53.7031
26.3334
26.2346
26.3416
26.6208
27.0467
27.6004
28.2696
29.0472
29.9315
30.9257
32.0375
33.2805
34.6737
36.2428
38.0243
40.0692
42.447
45.2523
48.6123
52.697
22.371
22.6954
23.1342
23.6726
24.3019
25.018
25.8213
26.7157
27.7088
28.8117
30.0393
31.4114
32.9527
34.695
36.6785
38.9549
41.5898
44.6673
48.2966
52.6188
21.53
22.0554
22.6482
23.3047
24.0245
24.8102
25.6671
26.6029
27.6278
28.7561
30.0023
31.3873
32.9375
34.6856
36.6731
38.952
41.5884
44.6667
48.2964
52.6188
22.8825
23.5765
24.3055
25.0717
25.879
26.7326
27.6386
28.6057
29.6262
30.7158
31.8951
33.1853
34.6109
36.2023
37.9993
40.0548
42.4395
45.2489
48.6112
52.6968
28.5367
29.5823
30.6291
31.6933
32.7881
33.92
35.0308
36.0897
37.1423
38.2095
39.3057
40.444
41.6355
42.8916
44.2266
45.6569
47.2145
48.9646
51.0357
53.7019
53.0782
55.1171
57.0876
59.136
61.4109
63.4446
65.1124
66.561
67.8698
69.093
70.2665
71.4049
72.5078
73.5434
74.4339
75.041
75.1376
74.3401
71.8647
66.3056
256.141
256.034
256.051
256.21
256.49
256.881
257.375
257.979
258.705
259.576
260.625
261.9
263.47
265.436
267.942
271.203
275.537
281.435
289.677
301.588
248.635
248.644
248.645
248.638
248.625
248.614
248.607
248.605
248.604
248.605
248.612
248.623
248.636
248.645
248.648
248.647
248.647
248.648
248.653
248.657
248.66
248.662
248.665
248.665
248.663
248.67
248.737
248.866
249.096
249.456
249.951
250.562
251.244
251.955
39.3789
40.7381
43.788
48.8182
52.1694
52.8219
51.1789
48.0739
44.4665
42.5692
40.9794
40.3736
40.5152
41.2711
42.3912
44.0252
44.6392
44.2033
44.6508
45.5218
48.1014
54.448
62.6698
70.4804
77.9343
84.0224
88.3499
91.0413
92.2218
91.9982
90.5673
88.1334
84.9511
81.3139
16.8668
16.5061
16.7353
18.8806
21.5821
23.4082
23.5979
22.0967
19.3677
17.0103
15.3759
14.7177
14.8261
15.4794
16.5317
18.9058
21.7295
25.1358
31.1697
37.8236
44.4063
50.0759
54.2048
56.6736
57.8043
57.7336
56.672
54.8605
52.5174
49.8296
47.0432
44.4346
42.0792
40.0905
14.7544
13.48
12.5527
12.5378
13.3739
14.437
14.9466
14.4324
12.9764
11.4671
10.6971
10.8429
11.6349
13.2566
15.8979
20.5852
26.1066
31.4574
36.2417
39.9268
42.3487
43.5215
43.5833
42.7557
41.2956
39.4177
37.3204
35.1705
33.1087
31.2392
29.6216
28.3145
27.3379
26.6866
14.5344
12.9186
11.7285
11.0046
10.8659
11.1665
11.4533
11.2807
10.6283
10.2662
11.043
12.7029
14.926
18.0447
21.9174
26.4603
30.5998
33.7258
35.6262
36.3238
36.0491
35.0722
33.635
31.9378
30.1454
28.3898
26.7756
25.3751
24.2224
23.332
22.7002
22.314
22.1509
22.1797
13.8182
12.1132
10.9311
10.1462
9.77081
9.77673
9.95233
10.0599
10.3386
11.7257
13.834
16.427
19.3784
22.804
26.283
29.24
31.1683
31.9398
31.7244
30.8176
29.506
28.0048
26.4641
24.9908
23.6639
22.5381
21.6437
20.9882
20.5628
20.3482
20.3192
20.4472
20.7072
21.0752
12.5465
10.9029
9.85203
9.24262
8.9739
9.02521
9.37094
10.1477
11.9036
14.3985
17.2229
20.1165
23.0474
25.7142
27.7332
28.8236
28.9356
28.2745
27.1458
25.8118
24.45
23.1699
22.041
21.1094
20.4025
19.9292
19.6826
19.6434
19.785
20.0772
20.492
21.0014
21.5787
22.212
11.0257
9.58854
8.75861
8.39341
8.364
8.72819
9.75222
11.7121
14.5171
17.3579
20.2272
22.8278
24.9106
26.2834
26.8197
26.5575
25.712
24.5638
23.3438
22.1979
21.2097
20.4283
19.8838
19.591
19.5517
19.7564
20.1891
20.8289
21.6554
22.6512
23.788
25.0158
26.2534
27.4266
9.6438
8.48645
7.94847
7.87633
8.25014
9.35225
11.4207
14.0961
17.0213
19.8338
22.2636
24.017
24.9928
25.1869
24.721
23.8255
22.7549
21.7098
20.8153
20.1432
19.7382
19.6314
19.8456
20.3991
21.3087
22.5955
24.2852
26.4139
29.0282
32.1776
35.905
40.2401
45.0291
49.3597
8.65013
7.84185
7.65874
8.04267
9.1175
10.9781
13.5159
16.3382
19.1071
21.4516
23.078
23.8602
23.8749
23.3162
22.4397
21.4879
20.6403
20.0106
19.6709
19.676
20.0787
20.9371
22.3241
24.3335
27.0896
30.7597
35.5776
41.858
50.0418
60.7798
75.0893
95.1853
125.33
174.326
248.602
248.603
248.604
248.606
248.611
248.623
182.647
56.0695
43.1388
40.3182
39.1249
38.8379
182.648
35.9986
21.257
19.3607
18.4107
17.5778
182.65
36.1627
23.4462
20.3765
18.2315
16.3946
182.65
43.0891
28.8086
23.2953
19.5315
16.7475
182.653
50.8463
33.228
25.1051
19.8647
16.3339
182.676
57.3878
35.7109
25.3355
19.1194
15.1859
182.749
61.7039
36.0112
24.0217
17.3576
13.4661
182.905
63.0499
34.1858
21.557
15.1397
11.676
183.133
61.1366
30.6404
18.5028
12.9538
10.1859
8.15071
7.79407
8.11242
9.06827
10.7087
12.9692
15.6062
18.2579
20.5361
22.1011
22.8063
22.7378
22.1462
21.3199
20.5009
19.8538
19.48
19.4468
19.8088
20.6185
21.9294
23.796
26.2709
29.393
33.1373
37.4761
42.3241
47.5626
53.0823
58.8872
65.4013
74.2201
92.3288
156.668
8.23627
8.4186
9.19354
10.5696
12.5185
14.8749
17.3457
19.5416
21.1006
21.8292
21.7858
21.2269
20.4667
19.7595
19.266
19.0775
19.2509
19.8288
20.8468
22.3302
24.2847
26.6787
29.4188
32.3261
35.1351
37.515
39.0678
39.3766
38.0203
34.3683
28.755
23.5686
31.9273
155.656
8.92932
9.45921
10.5596
12.188
14.2336
16.4649
18.5414
20.0988
20.9011
20.9499
20.4723
19.7867
19.1641
18.7731
18.7003
18.9917
19.6762
20.7686
22.2636
24.1128
26.2016
28.3298
30.2119
31.5041
31.8561
30.9471
28.5505
24.5086
19.6738
15.9379
12.7946
12.1275
24.8623
155.585
9.8879
10.6784
11.9862
13.7168
15.6822
17.5961
19.1256
20.0075
20.1807
19.8165
19.215
18.6577
18.3284
18.3188
18.6681
19.3932
20.4908
21.9203
23.5814
25.2918
26.79
27.7647
27.9132
27.0061
24.9327
21.7205
17.8724
14.7031
12.0036
9.96247
8.58102
9.5221
23.1882
155.566
10.9656
11.9316
13.3403
15.0297
16.7519
18.2134
19.1515
19.4522
19.2179
18.7092
18.2077
17.9137
17.9318
18.3027
19.0335
20.1015
21.4342
22.8856
24.2325
25.1977
25.5074
24.9576
23.4688
21.0988
17.9464
14.8825
12.4572
10.6114
9.06757
7.85933
7.25584
8.69665
22.4399
155.554
12.0594
13.1173
14.5165
16.0325
17.3923
18.3493
18.7576
18.6544
18.2453
17.7969
17.5243
17.5481
17.9167
18.6327
19.6546
20.8821
22.1373
23.1794
23.75
23.638
22.7361
21.0567
18.6866
15.7735
13.3962
11.4923
9.95347
8.71086
7.69296
6.93981
6.69693
8.32996
22.043
155.538
13.1067
14.174
15.4522
16.6812
17.6187
18.1037
18.1177
17.8088
17.4147
17.1565
17.1728
17.5237
18.2106
19.1773
20.3008
21.3862
22.192
22.4932
22.1424
21.1024
19.4161
17.1071
14.5784
12.5732
10.9207
9.57322
8.48358
7.59685
6.87813
6.38172
6.33438
8.09705
21.8769
155.522
14.0689
15.0515
16.104
16.9765
17.4999
17.6091
17.3926
17.0542
16.8094
16.8068
17.1278
17.7735
18.6783
19.7029
20.6436
21.2704
21.3917
20.9124
19.8411
18.2274
15.8948
13.7843
11.9757
10.4799
9.24478
8.24142
7.43856
6.77946
6.25237
5.91744
6.00507
7.90363
21.9489
155.519
14.8902
15.6979
16.455
16.962
17.136
17.0007
16.7135
16.4787
16.4545
16.7292
17.3224
18.1584
19.0889
19.9062
20.394
20.3908
19.8374
18.77
17.2241
14.9486
13.026
11.3964
10.0319
8.9011
7.99266
7.24685
6.62905
6.10564
5.69569
5.46186
5.6485
7.74811
22.2811
155.518
15.5228
16.0895
16.529
16.7148
16.641
16.398
16.1639
16.1062
16.3316
16.8575
17.6184
18.4593
19.1713
19.5487
19.4533
18.85
17.7906
16.31
14.1686
12.3319
10.8018
9.56722
8.55219
7.72437
7.04686
6.46243
5.94745
5.49654
5.14686
4.97602
5.29439
7.70802
22.9404
155.511
15.9437
16.2387
16.3834
16.3245
16.1106
15.8694
15.7673
15.9317
16.3847
17.0624
17.818
18.4417
18.7329
18.5676
17.926
16.8708
15.4562
13.5475
11.7363
10.3205
9.1743
8.31603
7.58034
6.92985
6.34188
5.79761
5.30387
4.88508
4.5779
4.49556
5.03127
7.89012
24.0572
155.5
16.1554
16.1821
16.0838
15.8659
15.6091
15.4557
15.5389
15.9066
16.501
17.1741
17.7255
17.9541
17.7389
17.0682
16.0131
14.6623
12.9584
11.3246
9.98949
9.0525
8.33028
7.70089
7.08206
6.4498
5.81548
5.21548
4.69675
4.29713
4.05248
4.15697
5.00932
8.56343
26.7462
155.488
16.1796
15.9687
15.6966
15.4045
15.1881
15.1775
15.435
15.9401
16.5394
17.0323
17.2218
16.9799
16.2923
15.2347
13.9114
12.3712
10.9533
9.84758
9.08319
8.55889
8.11223
7.64193
7.06239
6.38174
5.63258
4.91366
4.33137
3.93456
3.79115
4.16629
5.54656
10.6026
31.2377
155.476
16.0501
15.6509
15.2741
14.9758
14.8525
14.9934
15.3896
15.9177
16.3699
16.5425
16.3002
15.6172
14.5702
13.2873
11.9051
10.5963
9.67698
9.10281
8.75369
8.50578
8.26775
7.96377
7.5121
6.85651
6.02038
5.15066
4.46043
4.08297
4.11166
4.85718
7.00215
13.3257
34.6223
155.462
15.8039
15.2723
14.8541
14.6056
14.6053
14.8688
15.3143
15.7361
15.9165
15.7009
15.0477
14.0264
12.7786
11.4729
10.2935
9.44595
8.95918
8.71999
8.61769
8.58275
8.55948
8.4761
8.23339
7.72862
6.92562
5.95153
5.11808
4.73592
4.95797
6.04835
8.76117
15.6349
36.3265
155.448
15.477
14.869
14.4589
14.2887
14.4013
14.7419
15.1296
15.3348
15.1753
14.5802
13.6044
12.3918
11.1262
9.98861
9.12937
8.64219
8.42238
8.37758
8.44308
8.58583
8.77007
8.93401
8.97584
8.75984
8.16798
7.21835
6.20881
5.66939
5.96645
7.23179
10.1394
16.8731
36.2842
155.437
15.103
14.4656
14.0967
14.0217
14.218
14.5532
14.7862
14.7062
14.2017
13.2965
12.1271
10.8787
9.73078
8.81115
8.21471
7.9541
7.88879
7.95765
8.13508
8.40963
8.76114
9.14752
9.48652
9.64369
9.44623
8.76524
7.69533
6.76504
6.75888
7.94371
10.711
16.8577
34.8456
155.431
14.7049
14.0746
13.7673
13.7765
14.0155
14.2632
14.2733
13.8891
13.0868
11.9771
10.7399
9.5679
8.56908
7.83839
7.43562
7.30319
7.32713
7.45861
7.69934
8.05261
8.50929
9.05081
9.62699
10.138
10.4148
10.2428
9.46707
8.25968
7.45087
8.06289
10.3816
15.7346
32.4962
155.428
14.3016
13.7075
13.4758
13.5429
13.7631
13.858
13.6148
12.9528
11.9364
10.7378
9.52902
8.45709
7.59713
7.03289
6.7644
6.699
6.76598
6.92565
7.18968
7.5746
8.0751
8.6955
9.41355
10.1757
10.8627
11.2661
11.1135
10.1892
8.73518
8.02632
9.42283
13.8572
29.7576
155.427
13.9071
13.3618
13.1944
13.3005
13.4448
13.3471
12.8544
11.9696
10.8295
9.61624
8.48672
7.5174
6.79394
6.36673
6.18061
6.14875
6.22952
6.39758
6.667
7.04447
7.5398
8.1805
8.95574
9.84844
10.8037
11.6729
12.1976
12.0159
10.8159
8.9526
8.57813
11.8549
27.6635
155.427
13.5297
13.0437
12.9311
13.0362
13.061
12.7573
12.0466
11.0094
9.82225
8.64993
7.59513
6.72932
6.13082
5.79813
5.65202
5.62813
5.70448
5.86428
6.12188
6.48709
6.97256
7.59372
8.36348
9.297
10.3859
11.5522
12.6126
13.2273
12.9136
11.2339
9.05572
10.8885
26.8364
155.428
13.1705
12.7436
12.6782
12.7453
12.6242
12.1232
11.2409
10.1179
8.93394
7.81565
6.83609
6.07314
5.57507
5.29847
5.16593
5.13454
5.19405
5.33388
5.56664
5.90337
6.35833
6.94984
7.70121
8.62683
9.75976
11.081
12.4953
13.7571
14.4065
13.8189
11.4354
11.0158
26.6844
155.429
12.8334
12.4666
12.4315
12.4301
12.1533
11.4787
10.4749
9.31641
8.16057
7.09735
6.19487
5.52601
5.1006
4.85407
4.72202
4.67681
4.71448
4.829
5.03023
5.3298
5.7431
6.29015
6.99688
7.89583
9.02208
10.4024
12.0191
13.7402
15.2164
15.8086
14.6672
12.5967
27.0637
155.43
12.5221
12.2145
12.1889
12.0979
11.6689
10.8519
9.77142
8.60912
7.48962
6.48166
5.65563
5.06576
4.68941
4.45764
4.32036
4.2597
4.27502
4.36511
4.53332
4.79202
5.15705
5.64979
6.29886
7.14174
8.22546
9.60224
11.3109
13.3246
15.4447
17.1579
17.5862
16.1193
27.4637
155.43
12.2393
11.9864
11.95
11.7577
11.1893
10.2622
9.13948
7.99031
6.90899
5.95666
5.20215
4.67462
4.33077
4.1063
3.96293
3.88847
3.88328
3.95329
4.09038
4.30856
4.62295
5.05462
5.63325
6.39996
7.41001
8.73401
10.4511
12.6186
15.1882
17.8431
19.8146
19.9127
28.1292
155.431
11.9821
11.7796
11.7167
11.4192
10.7286
9.72066
8.5794
7.45105
6.40811
5.51084
4.81972
4.34011
4.01883
3.79964
3.65301
3.56998
3.55074
3.59964
3.70952
3.8913
4.15817
4.52927
5.03271
5.70983
6.62021
7.84741
9.50137
11.7059
14.5454
17.9244
21.3222
23.572
30.8782
155.431
11.7556
11.5933
11.4913
11.0907
10.2966
9.2325
8.0875
6.98247
5.97776
5.13324
4.49623
4.05347
3.74926
3.53534
3.38803
3.29984
3.27018
3.30204
3.38982
3.54141
3.7677
4.0849
4.51753
5.1033
5.90041
6.99734
8.52495
10.6609
13.6047
17.479
22.0994
26.6521
34.998
155.431
11.5565
11.4258
11.2763
10.7783
9.89947
8.79827
7.65753
6.57663
5.60966
4.81393
4.22209
3.80818
3.51791
3.30961
3.16334
3.07224
3.03506
3.05382
3.12439
3.25232
3.4464
3.71978
4.0925
4.5962
5.2824
6.23483
7.5906
9.56397
12.4536
16.5881
22.1549
28.8768
39.5483
155.431
11.3834
11.2753
11.074
10.486
9.53978
8.41534
7.28332
6.22667
5.29623
4.54432
3.98978
3.59899
3.32061
3.118
2.97359
2.88083
2.83804
2.84672
2.90403
3.01396
3.18369
3.42377
3.75001
4.18744
4.77807
5.59336
6.76017
8.50331
11.193
15.3475
21.5357
30.1393
43.9035
155.43
11.2329
11.1406
10.8856
10.2167
9.21802
8.08011
6.95925
5.92654
5.03069
4.31723
3.7934
3.42145
3.15333
2.95608
2.81367
2.71971
2.67239
2.673
2.71992
2.81619
2.96788
3.18366
3.47609
3.86445
4.38116
5.08237
6.07267
7.55886
9.93727
13.8796
20.3284
30.4214
47.5064
155.438
11.1023
11.0212
10.712
9.97192
8.93298
7.78874
6.68034
5.6709
4.80707
4.12676
3.62816
3.27174
3.01244
2.81992
2.67921
2.58407
2.53271
2.52652
2.56502
2.65068
2.7889
2.98719
3.25586
3.61011
4.07458
4.69129
5.53804
6.78205
8.79463
12.3324
18.6691
29.786
50.1558
155.461
10.9893
10.9156
10.554
9.75202
8.68297
7.53781
6.44225
5.45505
4.62024
3.96813
3.49024
3.14665
2.89478
2.70624
2.56678
2.4703
2.41514
2.40296
2.43439
2.51155
2.63946
2.82494
3.07702
3.40832
3.83834
4.39876
5.14328
6.19016
7.84383
10.8544
16.7623
28.3301
51.6652
155.511
10.8912
10.8223
10.4117
9.5567
8.46618
7.32387
6.24117
5.27486
4.46588
3.83749
3.37651
3.04347
2.79778
2.61249
2.47385
2.37589
2.31711
2.29955
2.32492
2.39512
2.51491
2.69075
2.93096
3.24684
3.65494
4.1811
4.8622
5.77111
7.12204
9.56824
14.7546
26.1708
51.8804
155.6
10.8054
10.74
10.2852
9.38539
8.28031
7.14358
6.07373
5.12675
4.34037
3.73175
3.2845
2.96003
2.71939
2.53671
2.39859
2.29914
2.23701
2.21466
2.23488
2.29936
2.4127
2.58111
2.8126
3.11787
3.51203
4.01858
4.66567
5.493
6.62573
8.56135
12.8602
23.5226
50.7739
155.728
10.7294
10.6679
10.1743
9.23718
8.12302
6.99401
5.93702
5.00771
4.24083
3.64848
3.21222
2.89457
2.65799
2.47742
2.33969
2.23892
2.17387
2.14741
2.1634
2.22337
2.33169
2.49439
2.7194
3.01728
3.40251
3.89815
4.53002
5.31901
6.31946
7.86041
11.2608
20.6809
48.3866
155.88
10.6619
10.6054
10.0788
9.11102
7.99209
6.87262
5.82852
4.91523
4.16494
3.58577
3.1581
2.84573
2.61235
2.43352
2.2962
2.19447
2.1271
2.0974
2.11024
2.16696
2.27163
2.43014
2.65046
2.94341
3.32321
3.81314
4.44018
5.2184
6.15588
7.43648
10.0576
17.9174
44.989
156.03
10.6016
10.5519
9.99833
9.00586
7.8855
6.77721
5.7461
4.84729
4.11094
3.54219
3.12098
2.81249
2.58153
2.40418
2.26744
2.16526
2.09643
2.06463
2.07564
2.13045
2.23283
2.38858
2.60585
2.89602
3.27348
3.76153
4.38928
5.17135
6.09146
7.22932
9.27019
15.5018
40.945
156.159
10.548
10.5068
9.93244
8.92061
7.8014
6.70582
5.68796
4.8023
4.0775
3.51673
3.10004
2.79414
2.56485
2.38882
2.25299
2.15106
2.08202
2.04971
2.0604
2.11465
2.21603
2.37039
2.58625
2.87573
3.25396
3.74399
4.37632
5.1691
6.09627
7.17613
8.85151
13.6309
36.5863
156.256
10.5
10.4698
9.88074
8.85419
7.73813
6.6567
5.6526
4.77903
4.06346
3.50857
3.09477
2.79033
2.56173
2.38699
2.25282
2.15248
2.08507
2.05445
2.06612
2.12081
2.22228
2.37662
2.5928
2.88388
3.26621
3.76256
4.4036
5.21077
6.15572
7.22777
8.71399
12.3988
32.3039
156.311
10.457
10.4405
9.84266
8.80555
7.69405
6.62806
5.63837
4.77621
4.0654
3.5157
3.1048
2.80182
2.5748
2.40165
2.26927
2.17118
2.10629
2.07832
2.09159
2.14762
2.25056
2.40679
2.62591
2.92208
3.31337
3.82268
4.47847
5.29988
6.26654
7.35647
8.77684
11.7967
28.5593
156.324
10.4185
10.4183
9.81742
8.77315
7.66647
6.61594
5.64055
4.7901
4.08901
3.54407
3.1347
2.83185
2.60516
2.43288
2.30207
2.20634
2.14411
2.11894
2.13452
2.19294
2.29869
2.45854
2.68282
2.98703
3.39127
3.91891
4.59699
5.44278
6.43615
7.55491
8.98037
11.7826
26.1331
156.298
10.3842
10.4005
9.80134
8.75486
7.65464
6.62119
5.66269
4.82562
4.13448
3.59388
3.18505
2.88118
2.6535
2.48131
2.3517
2.25802
2.19839
2.17634
2.19501
2.25715
2.36734
2.53277
2.76478
3.08063
3.50264
4.05498
4.76294
5.64006
6.66374
7.81386
9.2563
11.9539
25.3913
156.245
10.3543
10.3875
9.7944
8.75018
7.65759
6.64256
5.70359
4.88209
4.20177
3.66564
3.2568
2.95084
2.72124
2.54829
2.41934
2.32732
2.2702
2.2519
2.27479
2.34202
2.45839
2.63161
2.87448
3.20646
3.65239
4.23731
4.98425
5.90046
6.95813
8.14083
9.60382
12.2174
24.8749
156.173
10.3297
10.3805
9.79669
8.75922
7.67479
6.67838
5.76211
4.95888
4.29098
3.76012
3.35133
3.04259
2.81039
2.63599
2.50707
2.41642
2.36188
2.3481
2.37649
2.45022
2.57452
2.75803
3.01565
3.36962
3.84743
4.4749
5.27173
6.23582
7.33077
8.54613
10.0273
12.5399
24.518
156.088
10.3119
10.3808
9.80858
8.7819
7.70611
6.72779
5.83727
5.05544
4.40219
3.87815
3.46997
3.15864
2.92362
2.74741
2.61808
2.52863
2.47692
2.46859
2.50366
2.58519
2.71902
2.91587
3.19341
3.57725
4.0975
4.78025
5.63992
6.66115
7.79512
9.03669
10.5305
12.9381
24.3037
155.995
10.3029
10.3905
9.83079
8.81795
7.75172
6.7907
5.92827
5.17108
4.53521
4.02032
3.61427
3.30128
3.06393
2.88605
2.75633
2.66821
2.61979
2.61788
2.66053
2.75085
2.89607
3.11013
3.41498
3.83965
4.41658
5.1708
6.10807
7.19501
8.36702
9.62913
11.1182
13.3957
24.2025
155.901
10.3057
10.4122
9.86463
8.86751
7.81264
6.86795
6.03423
5.30492
4.68978
4.18667
3.78554
3.4732
3.23473
3.05587
2.92624
2.83995
2.79587
2.80104
2.8516
2.95154
3.11081
3.34813
3.69097
4.17215
4.82499
5.67085
6.70161
7.86002
9.06393
10.332
11.7863
13.8907
24.1781
155.809
10.3246
10.4495
9.91226
8.93118
7.89165
6.96363
6.15602
5.45605
4.86469
4.37752
3.98538
3.67682
3.43937
3.26084
3.13219
3.04859
3.01236
3.02311
3.08104
3.19203
3.37038
3.64124
4.03835
4.59813
5.35258
6.31419
7.45331
8.68259
9.90458
11.1503
12.5227
14.3862
24.2008
155.722
10.3641
10.5073
9.97698
9.01176
7.99104
7.0814
6.29774
5.62685
5.06192
4.5947
4.21552
3.91431
3.68053
3.50417
3.37766
3.29722
3.26778
3.28512
3.35215
3.47879
3.68628
4.00827
4.48483
5.15418
6.04344
7.14706
8.40354
9.69174
10.9043
12.0817
13.2996
14.8293
24.243
155.644
10.4319
10.5926
10.0641
9.1148
8.11445
7.22372
6.46468
5.82292
5.2856
4.841
4.4782
4.18779
3.96048
3.78836
3.66535
3.58872
3.56604
3.59186
3.67255
3.82473
4.07985
4.48182
5.07572
5.89766
6.96162
8.23023
9.59956
10.9179
12.0812
13.1139
14.0619
15.1489
24.3131
155.579
10.5395
10.7145
10.1835
9.25196
8.26903
7.3981
6.66429
6.05155
5.54236
5.12186
4.77778
4.50096
4.28278
4.11712
3.99931
3.92825
3.91489
3.95414
4.05862
4.25572
4.5911
5.11932
5.88588
6.9168
8.1978
9.63944
11.0925
12.388
13.4333
14.1984
14.711
15.2542
24.426
155.558
10.7039
10.8896
10.3634
9.43756
8.46848
7.61746
6.90916
6.32502
5.84368
5.44769
5.12365
4.86246
4.65592
4.49917
4.3892
4.32998
4.33114
4.39447
4.54372
4.82285
5.29527
6.02223
7.03957
8.34668
9.87473
11.4649
12.935
14.1298
14.9259
15.2229
15.0858
15.0575
24.6569
155.546
10.953
11.1624
10.6364
9.69491
8.7334
7.90112
7.21796
6.66168
6.20753
5.83612
5.53323
5.28942
5.09699
4.95197
4.85363
4.81781
4.84464
4.95659
5.19594
5.62921
6.33679
7.3741
8.74509
10.3885
12.1478
13.8051
15.1818
16.1228
16.4352
15.9661
14.9666
14.5738
25.6102
155.529
11.3521
11.5858
11.0425
10.0551
9.09227
8.27629
7.61729
7.08827
6.66135
6.31569
6.03618
5.8115
5.63532
5.50518
5.42504
5.42486
5.51437
5.73918
6.17007
6.89903
8.0088
9.51287
11.3364
13.3132
15.1963
16.755
17.8307
18.2382
17.6756
16.0644
14.1618
14.2545
30.8436
155.507
11.9983
12.2322
11.6409
10.5659
9.59199
8.78953
8.15464
7.65465
7.25829
6.94202
6.68886
6.48512
6.32907
6.22268
6.19211
6.2777
6.52356
7.01168
7.8473
9.12952
10.8842
13.009
15.294
17.4568
19.2135
20.3688
20.7618
20.1205
18.1355
15.0707
12.8553
16.4763
37.3152
155.485
13.0443
13.2297
12.5491
11.3309
10.3368
9.54861
8.94461
8.4825
8.12578
7.84698
7.62596
7.45567
7.33949
7.29581
7.41524
7.7513
8.4076
9.50619
11.1567
13.3743
16.0038
18.7589
21.276
23.2234
24.3571
24.5161
23.5105
21.0567
17.1028
12.8645
12.3975
19.1761
40.6343
155.461
14.9549
14.9115
14.0743
12.6453
11.6294
10.8724
10.3338
9.94787
9.66616
9.46226
9.31699
9.23827
9.24725
9.46894
10.0697
11.1527
12.8568
15.2655
18.328
21.7947
25.2135
28.1288
30.1762
31.045
30.5492
28.5879
25.0956
19.9639
14.3201
11.5493
13.3962
20.2633
40.4743
155.441
18.662
18.1663
17.2802
15.7731
14.8811
14.3185
14.0258
13.8895
13.8383
13.8572
13.954
14.1933
14.7544
16.1554
18.3459
21.411
25.3492
29.8932
34.568
38.7249
41.7565
43.405
43.3246
41.1803
36.9637
30.9883
24.2574
17.9571
15.5397
15.0631
16.5981
21.664
39.0929
155.431
36.7931
31.5248
32.0711
32.158
32.1013
32.2867
32.7293
33.3548
34.0874
34.8713
35.7435
38.0225
41.8092
46.3585
51.7754
57.8699
63.967
69.27
73.1847
75.3291
74.9179
71.6852
65.6604
57.0969
47.8153
40.6956
39.0992
38.4548
38.2178
38.1195
37.8577
39.0936
49.2245
155.427
230.583
226.998
224.573
223.335
223.14
223.15
223.145
223.163
223.194
223.216
223.216
223.186
223.11
222.971
222.756
222.45
222.044
221.563
221.068
220.647
220.38
220.261
220.226
220.227
220.227
220.225
220.223
220.221
220.22
220.22
220.219
220.217
220.215
187.821
183.382
56.7545
26.35
15.6293
11.2405
9.208
183.614
50.7251
22.0875
13.3664
10.183
8.8117
183.808
44.5474
18.7594
12.0486
9.81897
9.00021
183.963
39.0278
16.5682
11.532
10.0525
9.62626
184.091
34.7498
15.5189
11.6992
10.6257
10.5135
184.206
32.152
15.4728
12.156
11.3647
11.4867
184.325
31.8218
15.7426
12.756
12.1924
12.4532
184.42
31.6691
16.1272
13.4423
13.1053
13.4048
184.492
31.6205
16.5799
14.1596
13.9668
14.2906
184.547
31.64
17.0944
14.9495
14.7816
15.0587
184.587
31.7172
17.6194
15.6715
15.5061
15.6711
184.6
31.8651
18.1872
16.3289
16.1103
16.1071
184.566
32.08
18.6875
16.8956
16.5709
16.3635
184.537
32.3615
19.1386
17.3562
16.8798
16.4523
184.515
32.5805
19.5144
17.698
17.0403
16.3951
184.655
32.8068
19.8105
17.9171
17.0643
16.2182
184.925
33.0306
20.0256
18.0177
16.9695
15.9498
185.215
33.2382
20.1593
18.0097
16.7762
15.6157
185.512
33.4224
20.2135
17.9059
16.5043
15.2377
185.815
33.5769
20.1948
17.7209
16.1732
14.838
186.108
33.7198
20.1151
17.4707
15.8013
14.432
186.391
33.8617
19.9858
17.171
15.4071
14.0333
186.664
34.005
19.8178
16.8371
15.0075
13.6503
186.929
34.1517
19.6216
16.4825
14.6121
13.2861
187.184
34.3049
19.4077
16.1214
14.2292
12.9447
187.429
34.4669
19.1861
15.7657
13.8664
12.6272
187.664
34.6459
18.9642
15.4218
13.5255
12.3359
187.887
34.8521
18.7476
15.0918
13.2061
12.0718
188.096
35.086
18.5426
14.7789
12.9095
11.8319
188.289
35.3471
18.3534
14.4853
12.6348
11.6148
188.464
35.6352
18.1829
14.2125
12.3819
11.4209
188.621
35.9496
18.0331
13.9606
12.1503
11.2517
188.758
36.2892
17.9046
13.725
11.9383
11.1015
188.873
36.6523
17.7968
13.5027
11.7441
10.967
188.965
37.0356
17.7086
13.2989
11.5656
10.8461
189.033
37.4093
17.6386
13.1153
11.4013
10.7368
189.077
37.92
17.5887
12.9499
11.2496
10.6369
189.096
38.6584
17.5616
12.8007
11.1089
10.545
189.089
39.5518
17.5584
12.6663
10.9775
10.4599
189.056
40.4811
17.6179
12.5463
10.8545
10.3807
188.998
41.3912
17.7264
12.4426
10.7398
10.3069
188.918
42.2373
17.8532
12.3581
10.6352
10.2393
188.819
42.973
17.982
12.286
10.5409
10.1783
188.706
43.5513
18.0941
12.2208
10.456
10.124
188.585
43.9224
18.1686
12.156
10.3793
10.0767
188.463
44.0349
18.1831
12.0841
10.3097
10.0373
188.348
43.8396
18.1107
12.001
10.2462
10.0073
188.249
43.2342
17.9695
11.9119
10.1913
9.98953
188.172
42.4933
17.7848
11.8151
10.1471
9.98929
188.125
41.678
17.5538
11.71
10.1171
10.014
188.116
40.7579
17.2759
11.5983
10.1074
10.0743
188.157
39.7142
16.9502
11.4858
10.1284
10.1863
188.255
38.5379
16.5825
11.3863
10.1972
10.377
188.422
37.2536
16.1777
11.3221
10.3488
10.6918
188.666
35.8897
15.7655
11.328
10.6424
11.2203
188.996
34.4943
15.3958
11.459
11.1977
12.122
189.423
33.2326
15.1364
11.8329
12.241
13.7979
189.958
32.2414
15.0685
12.6821
14.3517
17.1106
190.612
31.587
15.4201
14.7541
19.9672
29.1799
191.389
31.3955
17.2798
23.9338
51.9897
119.573
192.073
31.3675
19.5082
32.6612
75.676
194.522
192.819
31.6611
21.7641
39.2085
86.9073
194.867
193.618
32.2102
23.7244
43.744
92.0075
193.906
220.566
220.33
220.361
220.39
220.4
220.426
220.452
220.466
220.461
220.447
220.424
220.397
220.36
220.317
220.276
220.246
220.228
220.219
220.216
220.215
220.215
220.215
220.215
220.215
220.215
220.215
220.215
220.215
220.215
220.215
220.215
220.215
220.215
187.821
65.1695
38.9197
34.9927
33.2729
32.3243
31.9174
31.9469
32.3514
33.1301
34.2281
36.0221
40.9342
45.8287
49.8686
52.3796
52.7868
51.2906
48.765
45.8834
43.0205
40.5746
38.9801
38.1945
38.056
38.0018
37.9434
37.8885
37.8172
37.7411
37.6878
37.7534
38.5021
46.0303
155.426
37.3512
17.0805
13.6052
12.6215
12.0514
11.6341
11.3366
11.1614
11.1409
11.3029
11.736
13.0566
15.7455
19.0203
22.2049
24.5394
25.604
25.3861
24.039
21.8002
19.1078
16.6006
14.7398
13.706
13.2135
13.0184
12.9073
12.7958
12.7319
12.8068
13.3454
15.836
29.8862
155.426
28.1393
13.2402
10.3464
9.51295
8.90606
8.35522
7.85397
7.4164
7.07208
6.84763
6.77866
6.97987
7.86962
9.47185
11.5929
13.8036
15.5943
16.6063
16.6774
15.7923
14.0985
11.9492
9.82399
8.15334
7.09783
6.56603
6.3133
6.20969
6.25111
6.60465
7.76251
11.5923
28.084
155.426
25.8287
13.1053
10.2915
9.30586
8.48381
7.72807
7.04859
6.44965
5.94797
5.55971
5.30118
5.20753
5.42285
6.08768
7.24629
8.78981
10.4188
11.7572
12.509
12.5158
11.7506
10.3355
8.55086
6.78021
5.35452
4.45122
4.01313
3.90215
4.06989
4.68903
6.29119
10.7768
27.9674
155.426
25.9877
14.1462
11.0557
9.75409
8.6447
7.65397
6.80788
6.08531
5.48277
5.00446
4.6567
4.44994
4.43281
4.69291
5.30471
6.28998
7.53878
8.79488
9.75812
10.2107
10.0471
9.26736
7.98323
6.42447
4.92854
3.81677
3.17301
2.99743
3.24164
4.02643
5.87244
10.651
28.0639
155.427
26.8777
15.4868
12.017
10.3532
8.93961
7.7113
6.71406
5.89011
5.2103
4.6674
4.26458
4.00388
3.89869
3.99073
4.33171
4.96802
5.8819
6.93169
7.87745
8.50181
8.66049
8.30645
7.46758
6.23016
4.86234
3.70501
2.9279
2.64653
2.87958
3.72502
5.68544
10.6216
28.1757
155.427
28.075
16.9454
13.0358
10.9767
9.2617
7.80955
6.68022
5.77356
5.02707
4.42482
3.97459
3.67946
3.53804
3.56404
3.77987
4.22144
4.90048
5.74432
6.58478
7.24221
7.54934
7.4436
6.91576
6.00774
4.84532
3.75781
2.93679
2.54125
2.67963
3.49782
5.4879
10.5257
28.2338
155.427
29.3825
18.3945
14.074
11.6002
9.58093
7.92604
6.68422
5.71086
4.91216
4.25418
3.75457
3.42919
3.27091
3.27776
3.44224
3.78127
4.30824
4.98456
5.70221
6.32081
6.67123
6.70253
6.37386
5.7059
4.77146
3.81315
3.02022
2.55407
2.54927
3.26098
5.20753
10.2938
28.1618
155.427
30.6762
19.8442
15.1227
12.2176
9.87911
8.03659
6.7131
5.69319
4.8553
4.15641
3.61446
3.26098
3.09257
3.10067
3.24713
3.53052
3.95699
4.50479
5.10639
5.65351
6.00278
6.08526
5.87433
5.3717
4.6329
3.81966
3.09966
2.61615
2.49938
3.00805
4.83221
9.89088
27.9017
155.427
31.9034
21.2843
16.1578
12.7873
10.132
8.13965
6.75908
5.71514
4.85852
4.1415
3.57998
3.2128
3.0395
3.04758
3.17738
3.41768
3.76965
4.21644
4.71474
5.18222
5.49564
5.58353
5.43274
5.03733
4.44797
3.77356
3.14884
2.69026
2.50688
2.84792
4.39458
9.2901
27.405
155.427
33.1122
22.6608
17.1516
13.2995
10.3421
8.24962
6.83922
5.79466
4.9451
4.24339
3.70114
3.33996
3.16168
3.14828
3.24605
3.43613
3.71266
4.06377
4.46171
4.85761
5.12
5.19054
5.05771
4.72484
4.24154
3.69203
3.16625
2.75081
2.54121
2.7659
4.09475
8.70129
26.7157
155.428
34.329
23.9258
18.0647
13.7442
10.5245
8.36862
6.97816
5.97284
5.16944
4.51698
4.01178
3.6643
3.47814
3.42945
3.47933
3.60935
3.80895
4.06628
4.36072
4.65396
4.85749
4.89905
4.75878
4.45802
4.04624
3.59359
3.156
2.79292
2.58582
2.7338
3.8764
8.26599
26.1676
155.428
35.3959
25.0726
18.8756
14.1239
10.6937
8.52489
7.19324
6.26779
5.55611
4.99562
4.56552
4.2605
4.08415
4.00228
3.99784
4.05752
4.16968
4.32226
4.499
4.67139
4.78266
4.77239
4.59686
4.29728
3.92295
3.52808
3.15339
2.83792
2.64381
2.74102
3.72797
7.88463
25.7052
155.428
36.2506
26.1096
19.5614
14.4269
10.86
8.7338
7.50407
6.70382
6.13439
5.71913
5.42031
5.21906
5.10707
5.03764
5.01541
5.03036
5.06979
5.12121
5.1717
5.20235
5.18072
5.06721
4.80691
4.43607
4.02726
3.62091
3.25243
2.94629
2.74605
2.79581
3.64767
7.54746
25.2533
155.428
36.8884
27.0081
20.1105
14.665
11.0388
9.01326
7.93006
7.30024
6.92042
6.70263
6.59796
6.5764
6.58713
6.61378
6.66057
6.71391
6.75698
6.77276
6.74477
6.6573
6.49054
6.22236
5.82358
5.26043
4.67146
4.11401
3.62395
3.23041
2.95305
2.92193
3.64468
7.3151
24.8396
155.428
37.3544
27.7051
20.5161
14.8745
11.2531
9.37915
8.48363
8.05995
7.90014
7.90796
8.02573
8.20953
8.38629
8.58014
8.77896
8.96351
9.11236
9.20039
9.197
9.0803
8.82521
8.4124
7.83177
7.05339
6.10289
5.19577
4.4055
3.77573
3.32444
3.14364
3.7247
7.19747
24.5498
155.428
37.673
28.2065
20.7815
15.0586
11.5104
9.83701
9.16045
8.96138
9.02836
9.26157
9.59415
9.92965
10.2933
10.6735
11.0524
11.4121
11.7398
12.0134
12.1622
12.1461
11.9292
11.4729
10.7415
9.72181
8.41584
6.96185
5.66874
4.6319
3.88173
3.47046
3.88544
7.20144
24.4259
155.43
37.8599
28.5246
20.915
15.159
11.8015
10.3791
9.93627
9.95779
10.2352
10.6465
11.0906
11.5796
12.0974
12.6231
13.1356
13.6148
14.0433
14.3679
14.5853
14.669
14.5804
14.2696
13.6813
12.7643
11.471
9.6926
7.59327
5.88727
4.65673
3.91156
4.12345
7.3255
24.489
155.432
37.9234
28.6645
20.9274
15.2288
12.1311
10.9822
10.7625
10.9726
11.3694
11.8419
12.3771
12.9498
13.5347
14.1088
14.6515
15.1425
15.5621
15.922
16.2297
16.4673
16.5965
16.5564
16.2639
15.6214
14.5266
12.8912
10.6585
7.9334
5.82269
4.5445
4.45157
7.56482