/*--------------------------------*- C++ -*----------------------------------*\
| =========                 |                                                 |
| \\      /  F ield         | OpenFOAM: The Open Source CFD Toolbox           |
|  \\    /   O peration     | Version:  v2012                                 |
|   \\  /    A nd           | Website:  www.openfoam.com                      |
|    \\/     M anipulation  |                                                 |
\*---------------------------------------------------------------------------*/
FoamFile
{
    version     2.0;
    format      ascii;
    class       surfaceScalarField;
    location    "545";
    object      phi;
}
// * * * * * * * * * * * * * * * * * * * * * * * * * * * * * * * * * * * * * //

dimensions      [0 3 -1 0 0 0 0];
oriented        oriented;


internalField   nonuniform List<scalar> 
11779
(
-9.62279e-05
1.00797e-05
8.61482e-05
-0.000105374
9.14625e-06
-0.000113674
8.30023e-06
-0.000121198
7.52402e-06
-0.00012797
6.77152e-06
-0.000134047
6.07676e-06
-0.000139587
5.54005e-06
-0.000144751
5.16451e-06
-0.000149664
4.9129e-06
-0.000154421
4.75712e-06
-0.000159099
4.67751e-06
-0.000163754
4.65486e-06
-0.000168419
4.66515e-06
-0.00017311
4.6915e-06
-0.000177835
4.72491e-06
-0.000182572
4.73725e-06
-0.000187266
4.69388e-06
-0.000191958
4.6912e-06
-0.000196683
4.72557e-06
3.31691e-06
-0.000192015
1.52841e-05
0.000186811
-0.000195829
1.29602e-05
-0.000198531
1.10022e-05
-0.000200375
9.36761e-06
-0.000201649
8.04551e-06
-0.000202583
7.01079e-06
-0.000203268
6.22503e-06
-0.000203748
5.64523e-06
-0.000204063
5.22753e-06
-0.000204241
4.9354e-06
-0.000204311
4.74754e-06
-0.000204308
4.65166e-06
-0.000204249
4.6061e-06
-0.000204123
4.56515e-06
-0.000203921
4.52352e-06
-0.000203645
4.46131e-06
-0.000203272
4.32107e-06
-0.000202658
4.07682e-06
-0.00020162
3.68787e-06
1.69656e-06
-0.000215457
1.62335e-05
0.000214508
-0.000215944
1.34469e-05
-0.000216052
1.11107e-05
-0.000215882
9.1974e-06
-0.000215506
7.66934e-06
-0.000214971
6.4765e-06
-0.000214311
5.56465e-06
-0.000213548
4.88222e-06
-0.000212702
4.38168e-06
-0.000211787
4.01965e-06
-0.000210791
3.75231e-06
-0.000209694
3.55432e-06
-0.000208532
3.44409e-06
-0.000207351
3.38458e-06
-0.000206138
3.31052e-06
-0.000204875
3.19784e-06
-0.000203571
3.01759e-06
-0.000202254
2.75926e-06
-0.000200823
2.25659e-06
8.73968e-07
-0.000221996
1.61661e-05
0.000222063
-0.000221603
1.30542e-05
-0.000220963
1.04707e-05
-0.000220144
8.37785e-06
-0.000219191
6.71695e-06
-0.000218136
5.42127e-06
-0.000216998
4.42644e-06
-0.00021579
3.67448e-06
-0.000214522
3.11333e-06
-0.000213198
2.69611e-06
-0.000211829
2.38319e-06
-0.000210429
2.15444e-06
-0.00020899
2.0044e-06
-0.000207506
1.90056e-06
-0.000206001
1.80563e-06
-0.0002045
1.69756e-06
-0.000203044
1.56119e-06
-0.000201673
1.38803e-06
-0.000200481
1.06473e-06
3.92984e-07
-0.000224989
1.56756e-05
0.00022548
-0.000224178
1.22434e-05
-0.000223146
9.43886e-06
-0.000221971
7.20219e-06
-0.0002207
5.44658e-06
-0.000219363
4.0843e-06
-0.000217976
3.03856e-06
-0.000216546
2.24513e-06
-0.000215081
1.64804e-06
-0.000213583
1.19852e-06
-0.00021206
8.5958e-07
-0.000210513
6.07942e-07
-0.000208938
4.29019e-07
-0.000207341
3.04093e-07
-0.000205749
2.13636e-07
-0.000204199
1.47484e-07
-0.000202737
9.90136e-08
-0.000201412
6.27323e-08
-0.000200382
3.464e-08
1.12438e-08
-0.000226953
1.48676e-05
0.000227761
-0.000225797
1.10875e-05
-0.000224442
8.08289e-06
-0.000222988
5.74838e-06
-0.000221488
3.94698e-06
-0.000219966
2.56265e-06
-0.000218431
1.50347e-06
-0.000216887
7.0031e-07
-0.000215333
9.49305e-08
-0.00021377
-3.64764e-07
-0.000212196
-7.14127e-07
-0.000210609
-9.79144e-07
-0.000209002
-1.17831e-06
-0.000207384
-1.31403e-06
-0.000205777
-1.39313e-06
-0.000204216
-1.41329e-06
-0.000202747
-1.37071e-06
-0.000201416
-1.26774e-06
-0.000200383
-9.98588e-07
-3.71719e-07
-0.000228119
1.36315e-05
0.000229355
-0.000226592
9.56141e-06
-0.000224922
6.41207e-06
-0.000223235
4.06197e-06
-0.000221577
2.28873e-06
-0.000219959
9.44209e-07
-0.000218373
-8.16647e-08
-0.000216814
-8.59379e-07
-0.000215275
-1.44348e-06
-0.00021375
-1.89047e-06
-0.000212229
-2.23458e-06
-0.000210711
-2.49775e-06
-0.000209176
-2.71243e-06
-0.000207628
-2.86217e-06
-0.000206081
-2.94052e-06
-0.00020455
-2.94438e-06
-0.000203072
-2.84891e-06
-0.000201685
-2.65393e-06
-0.000200485
-2.19929e-06
-8.56431e-07
-0.000227174
1.20005e-05
0.000228805
-0.000225222
7.60932e-06
-0.000223279
4.469e-06
-0.000221449
2.23251e-06
-0.000219756
5.95725e-07
-0.000218195
-6.17107e-07
-0.000216741
-1.5357e-06
-0.000215364
-2.2361e-06
-0.000214029
-2.77832e-06
-0.000212715
-3.20462e-06
-0.000211409
-3.54138e-06
-0.000210105
-3.80177e-06
-0.000208822
-3.9952e-06
-0.000207551
-4.13271e-06
-0.000206266
-4.2261e-06
-0.000204952
-4.2577e-06
-0.000203614
-4.18768e-06
-0.000202272
-3.99525e-06
-0.000200828
-3.6433e-06
-1.68465e-06
-0.000216938
9.15936e-06
0.000219779
-0.000214105
4.77714e-06
-0.000211823
2.18654e-06
-0.000210107
5.16232e-07
-0.000208828
-6.83177e-07
-0.000207867
-1.57772e-06
-0.000207118
-2.28483e-06
-0.00020652
-2.83436e-06
-0.000206034
-3.26434e-06
-0.000205633
-3.60529e-06
-0.000205295
-3.87959e-06
-0.000205
-4.09696e-06
-0.00020472
-4.27472e-06
-0.00020443
-4.42284e-06
-0.000204114
-4.5417e-06
-0.00020376
-4.61267e-06
-0.000203332
-4.61521e-06
-0.00020268
-4.64695e-06
-0.000201623
-4.70025e-06
-3.30797e-06
-0.000150131
0.000159291
-0.000145354
-0.000143168
-0.000142651
-0.000143335
-0.000144912
-0.000147197
-0.000150032
-0.000153296
-0.000156901
-0.000160781
-0.000164878
-0.000169152
-0.000173575
-0.000178117
-0.00018273
-0.000187345
-0.000191992
-0.000196692
9.32594e-06
-2.96172e-06
-6.36422e-06
1.07035e-05
-1.3776e-06
1.03512e-05
3.5237e-07
8.68311e-06
1.66806e-06
6.46768e-06
2.21544e-06
4.4304e-06
2.03727e-06
2.98012e-06
1.45029e-06
2.26602e-06
7.14094e-07
2.33802e-06
-7.19943e-08
3.21574e-06
-8.77725e-07
4.97227e-06
-1.75653e-06
7.00209e-06
-2.02982e-06
8.76453e-06
-1.76245e-06
9.82887e-06
-1.06434e-06
1.00265e-05
-1.97647e-07
9.6991e-06
3.27413e-07
9.40072e-06
2.98377e-07
9.39495e-06
5.76729e-09
9.60743e-06
-2.12478e-07
9.68768e-06
-8.02493e-08
9.35838e-06
3.29291e-07
8.47793e-06
8.80455e-07
6.9806e-06
1.49732e-06
4.67948e-06
2.30112e-06
1.08502e-06
3.59446e-06
-4.08174e-06
5.16676e-06
-1.08005e-05
6.71873e-06
-1.90191e-05
8.21861e-06
-2.86891e-05
9.67003e-06
-3.95488e-05
1.08597e-05
-5.12426e-05
1.16938e-05
-6.32736e-05
1.2031e-05
-7.50646e-05
1.1791e-05
1.10836e-05
2.05067e-05
-7.67681e-06
-1.57917e-05
2.32282e-05
-4.09907e-06
2.37743e-05
-1.93667e-07
2.22773e-05
3.16497e-06
1.92458e-05
5.24699e-06
1.55377e-05
5.7454e-06
1.21512e-05
4.8368e-06
9.89231e-06
2.97293e-06
9.18497e-06
6.35352e-07
1.0084e-05
-1.77676e-06
1.23604e-05
-4.03291e-06
1.47863e-05
-4.45574e-06
1.67235e-05
-3.6997e-06
1.76324e-05
-1.97317e-06
1.7508e-05
-7.32424e-08
1.67013e-05
1.13404e-06
1.53443e-05
1.65538e-06
1.32416e-05
2.10849e-06
1.0207e-05
2.8221e-06
6.05906e-06
4.06772e-06
2.25772e-07
6.16257e-06
-8.46236e-06
9.56858e-06
-2.08535e-05
1.38885e-05
-3.66453e-05
1.80929e-05
-5.46721e-05
2.16213e-05
-7.38621e-05
2.43568e-05
-9.33345e-05
2.61911e-05
-0.000112278
2.71623e-05
-0.000129941
2.73331e-05
-0.000145812
2.67302e-05
-0.000159487
2.53693e-05
-0.000170776
2.33196e-05
-0.000179808
2.08233e-05
1.8086e-05
2.99807e-05
-1.2337e-05
-2.53205e-05
3.24256e-05
-6.54394e-06
3.27788e-05
-5.46905e-07
3.13015e-05
4.64231e-06
2.8376e-05
8.17244e-06
2.45726e-05
9.54876e-06
2.07083e-05
8.70111e-06
1.76835e-05
5.99778e-06
1.61564e-05
2.16247e-06
1.62327e-05
-1.85313e-06
1.72825e-05
-5.08269e-06
1.7988e-05
-5.16125e-06
1.78031e-05
-3.51478e-06
1.64846e-05
-6.54643e-07
1.41802e-05
2.23112e-06
1.09122e-05
4.40208e-06
6.26454e-06
6.30302e-06
-5.15023e-07
8.88805e-06
-1.0515e-05
1.28221e-05
-2.46376e-05
1.81903e-05
-4.29261e-05
2.44511e-05
-6.41843e-05
3.08268e-05
-8.6781e-05
3.64852e-05
-0.000109369
4.06808e-05
-0.000130839
4.30916e-05
-0.000150312
4.38297e-05
-0.000167226
4.31051e-05
-0.000181273
4.12088e-05
-0.000192354
3.84148e-05
-0.000200621
3.49965e-05
-0.00020646
3.12088e-05
-0.000210384
2.72435e-05
-0.000212907
2.33467e-05
1.96861e-05
3.70647e-05
-1.59696e-05
-3.34322e-05
3.84542e-05
-7.93338e-06
3.79941e-05
-8.6832e-08
3.60905e-05
6.54596e-06
3.30837e-05
1.11792e-05
2.93775e-05
1.3255e-05
2.55613e-05
1.25173e-05
2.23415e-05
9.2176e-06
2.0256e-05
4.24792e-06
1.90667e-05
-6.63774e-07
1.75902e-05
-3.60625e-06
1.53083e-05
-2.87928e-06
1.18253e-05
-3.18164e-08
7.19366e-06
3.977e-06
1.20693e-06
8.21785e-06
-6.99936e-06
1.26084e-05
-1.8704e-05
1.80077e-05
-3.47491e-05
2.49332e-05
-5.50017e-05
3.30747e-05
-7.82935e-05
4.14821e-05
-0.000102828
4.89854e-05
-0.000126719
5.47176e-05
-0.000148447
5.82137e-05
-0.000167139
5.9373e-05
-0.000182475
5.8427e-05
-0.000194481
5.58362e-05
-0.000203465
5.20892e-05
-0.000209896
4.7639e-05
-0.000214341
4.28607e-05
-0.000217375
3.803e-05
-0.000219451
3.32852e-05
-0.000220858
2.865e-05
-0.000221704
2.41928e-05
2.00456e-05
3.99737e-05
-1.79176e-05
-3.80256e-05
4.00704e-05
-8.0301e-06
3.87273e-05
1.25628e-06
3.63301e-05
8.94311e-06
3.31593e-05
1.435e-05
2.95269e-05
1.68874e-05
2.58378e-05
1.62065e-05
2.25309e-05
1.25245e-05
1.96787e-05
7.10013e-06
1.65923e-05
2.42265e-06
1.22726e-05
7.13365e-07
6.72259e-06
2.67076e-06
-4.6669e-07
7.15746e-06
-9.63165e-06
1.3142e-05
-2.17207e-05
2.03069e-05
-3.7834e-05
2.87217e-05
-5.81908e-05
3.83644e-05
-8.18526e-05
4.8595e-05
-0.000107003
5.82248e-05
-0.000131522
6.60016e-05
-0.000153653
7.11166e-05
-0.000172306
7.33706e-05
-0.0001871
7.30074e-05
-0.000198247
7.05199e-05
-0.000206326
6.65062e-05
-0.000212042
6.15518e-05
-0.000216087
5.61349e-05
-0.000219042
5.05932e-05
-0.000221292
4.5111e-05
-0.000223019
3.97566e-05
-0.00022429
3.45567e-05
-0.000225142
2.95017e-05
-0.000225546
2.4597e-05
1.99792e-05
3.8178e-05
-1.79675e-05
-3.81282e-05
3.69482e-05
-6.80029e-06
3.49236e-05
3.2809e-06
3.22514e-05
1.16152e-05
2.90448e-05
1.75566e-05
2.54984e-05
2.04338e-05
2.18718e-05
1.9833e-05
1.82867e-05
1.61096e-05
1.42753e-05
1.11115e-05
8.94598e-06
7.75199e-06
1.69162e-06
7.96772e-06
-7.71386e-06
1.20762e-05
-1.98533e-05
1.92969e-05
-3.54596e-05
2.87482e-05
-5.49049e-05
3.97522e-05
-7.78194e-05
5.16362e-05
-0.000102828
6.33734e-05
-0.000127866
7.36328e-05
-0.000150835
8.11933e-05
-0.000170282
8.54484e-05
-0.000185634
8.64694e-05
-0.000197059
8.47949e-05
-0.000205198
8.11465e-05
-0.000210898
7.62202e-05
-0.00021497
7.05779e-05
-0.000218042
6.46239e-05
-0.000220531
5.86241e-05
-0.000222654
5.27158e-05
-0.000224472
4.69294e-05
-0.000225963
4.1248e-05
-0.00022709
3.56836e-05
-0.00022783
3.02419e-05
-0.000228082
2.48481e-05
1.9659e-05
3.22314e-05
-1.64062e-05
-3.37927e-05
3.01613e-05
-4.73018e-06
2.7738e-05
5.70419e-06
2.49388e-05
1.44145e-05
2.17437e-05
2.07516e-05
1.82305e-05
2.39471e-05
1.44987e-05
2.35648e-05
1.02953e-05
2.0313e-05
4.69826e-06
1.67085e-05
-3.27408e-06
1.57243e-05
-1.42573e-05
1.89509e-05
-2.87627e-05
2.65817e-05
-4.69757e-05
3.75099e-05
-6.86465e-05
5.04189e-05
-9.28592e-05
6.3965e-05
-0.000118003
7.67799e-05
-0.000141988
8.73582e-05
-0.000162928
9.45736e-05
-0.00017976
9.80245e-05
-0.000192369
9.80579e-05
-0.000201343
9.54435e-05
-0.000207587
9.10383e-05
-0.00021201
8.55702e-05
-0.000215353
7.9563e-05
-0.000218105
7.33301e-05
-0.00022052
6.70383e-05
-0.000222699
6.08029e-05
-0.000224658
5.46748e-05
-0.000226377
4.86484e-05
-0.000227805
4.26767e-05
-0.000228876
3.67543e-05
-0.00022957
3.09359e-05
-0.00022986
2.51377e-05
1.91539e-05
2.46475e-05
-1.4051e-05
-2.70027e-05
2.19893e-05
-2.07202e-06
1.9122e-05
8.57156e-06
1.60008e-05
1.75357e-05
1.25685e-05
2.41839e-05
8.83542e-06
2.76802e-05
4.68765e-06
2.77126e-05
-6.78775e-07
2.56795e-05
-8.62634e-06
2.46561e-05
-2.02415e-05
2.73395e-05
-3.60423e-05
3.47517e-05
-5.58198e-05
4.63591e-05
-7.87182e-05
6.04083e-05
-0.000103428
7.51287e-05
-0.000128156
8.86935e-05
-0.000150841
9.94647e-05
-0.000169859
0.000106376
-0.00018452
0.000109234
-0.000195085
0.00010859
-0.000202407
0.00010538
-0.000207512
0.000100548
-0.000211282
9.48084e-05
-0.000214319
8.86078e-05
-0.000216967
8.22106e-05
-0.000219387
7.57503e-05
-0.000221591
6.9242e-05
-0.000223543
6.27553e-05
-0.000225224
5.63561e-05
-0.000226593
5.00173e-05
-0.000227661
4.37441e-05
-0.000228455
3.75485e-05
-0.000228998
3.14793e-05
-0.000229298
2.54372e-05
1.8661e-05
1.68611e-05
-1.11501e-05
-1.9762e-05
1.36619e-05
1.12715e-06
1.02102e-05
1.20233e-05
6.49589e-06
2.12499e-05
2.5356e-06
2.81442e-05
-1.70647e-06
3.19222e-05
-6.86777e-06
3.28739e-05
-1.4421e-05
3.32327e-05
-2.58239e-05
3.6059e-05
-4.18015e-05
4.33171e-05
-6.2071e-05
5.50212e-05
-8.54e-05
6.96881e-05
-0.000110139
8.51474e-05
-0.000134248
9.92371e-05
-0.000155723
0.000110169
-0.000173162
0.000116904
-0.000186176
0.00011939
-0.000195292
0.00011835
-0.000201531
0.000114828
-0.000205938
0.000109787
-0.000209321
0.00010393
-0.000212172
9.76599e-05
-0.000214676
9.11119e-05
-0.000216829
8.4363e-05
-0.000218573
7.74941e-05
-0.000219984
7.0653e-05
-0.000221083
6.38542e-05
-0.00022179
5.70638e-05
-0.000222164
5.03911e-05
-0.000222262
4.38417e-05
-0.00022205
3.73372e-05
-0.000221405
3.08344e-05
-0.000220567
2.45986e-05
1.78731e-05
9.38173e-06
-1.27769e-05
-7.75491e-06
5.5765e-06
4.93238e-06
1.39584e-06
1.6204e-05
-3.06475e-06
2.57105e-05
-7.7294e-06
3.28089e-05
-1.30168e-05
3.72096e-05
-2.0218e-05
4.00751e-05
-3.09896e-05
4.40043e-05
-4.63679e-05
5.14373e-05
-6.62446e-05
6.31938e-05
-8.9384e-05
7.81606e-05
-0.000113787
9.40908e-05
-0.000137232
0.000108593
-0.000157699
0.000119704
-0.000173938
0.000126408
-0.000185763
0.000128729
-0.000193873
0.0001275
-0.000199371
0.000123848
-0.000203301
0.000118759
-0.000206345
0.000112831
-0.000208805
0.00010639
-0.000210729
9.95847e-05
-0.000212124
9.25062e-05
-0.000212876
8.51154e-05
-0.00021278
7.73979e-05
-0.000211598
6.94708e-05
-0.000209058
6.13148e-05
-0.000204987
5.29918e-05
-0.000199262
4.46665e-05
-0.000191991
3.65707e-05
-0.000183629
2.89751e-05
-0.000174418
2.16233e-05
-0.000164294
1.44749e-05
1.28698e-05
-9.02554e-07
9.02554e-07
-1.90124e-06
9.98688e-07
-1.83643e-06
-6.48104e-08
-1.36787e-07
-1.69965e-06
2.91182e-06
-3.0486e-06
-3.4524e-06
-1.149e-06
2.05155e-06
-1.54395e-06
1.39363e-06
3.43916e-07
-1.95267e-06
4.67801e-06
-6.03374e-06
1.02745e-05
-8.64513e-06
-8.96952e-06
-6.24971e-07
2.67652e-06
7.39525e-07
2.91358e-08
5.38819e-06
-6.60134e-06
1.21433e-05
-1.27888e-05
1.92298e-05
-1.57316e-05
-1.50602e-05
2.9214e-07
2.38438e-06
4.1214e-06
-3.80012e-06
1.16164e-05
-1.40963e-05
2.02273e-05
-2.13998e-05
2.78241e-05
-2.33284e-05
-2.06683e-05
1.47498e-06
9.09406e-07
8.32456e-06
-1.06497e-05
1.81398e-05
-2.39115e-05
2.72715e-05
-3.05315e-05
3.39731e-05
-3.003e-05
-2.47209e-05
3.19542e-06
-2.28602e-06
1.29442e-05
-2.03985e-05
2.36281e-05
-3.45954e-05
3.15274e-05
-3.84308e-05
3.61435e-05
-3.4646e-05
-2.67056e-05
5.36833e-06
-7.65435e-06
1.69498e-05
-3.198e-05
2.66588e-05
-4.43044e-05
3.23255e-05
-4.40975e-05
3.43005e-05
-3.66211e-05
-2.61977e-05
7.85425e-06
-1.55086e-05
1.93589e-05
-4.34846e-05
2.64326e-05
-5.13781e-05
2.89356e-05
-4.66005e-05
2.85948e-05
-3.62802e-05
-2.46057e-05
1.00294e-05
-2.5538e-05
1.96501e-05
-5.31052e-05
2.36178e-05
-5.53458e-05
2.37977e-05
-4.67804e-05
2.21028e-05
-3.45853e-05
-2.22648e-05
1.07052e-05
-3.62432e-05
1.73479e-05
-5.9748e-05
1.90479e-05
-5.70458e-05
1.78631e-05
-4.55957e-05
1.55411e-05
-3.22633e-05
-1.95007e-05
2.14627e-06
-3.52446e-06
-6.37671e-06
-2.67541e-06
9.75406e-06
-7.97071e-06
2.14993e-05
-1.35992e-05
3.1339e-05
-1.97546e-05
3.89642e-05
-2.74512e-05
4.49062e-05
-3.83553e-05
5.09792e-05
-5.38274e-05
5.94764e-05
-7.40674e-05
7.16773e-05
-9.78845e-05
8.70109e-05
-0.000123078
0.000103354
-0.000147116
0.000118129
-0.000167826
0.000129303
-0.000183994
0.000135872
-0.000195553
0.000137967
-0.00020334
0.000136516
-0.000208547
0.000132708
-0.000212162
0.000127462
-0.000214756
0.000121353
-0.000216561
0.000114636
-0.000217397
0.000107226
-0.000216781
9.89686e-05
-0.000214029
8.97543e-05
-0.000208454
7.95396e-05
-0.000199641
6.85854e-05
-0.000187362
5.71915e-05
-0.000171669
4.56223e-05
-0.000152964
3.4287e-05
-0.000131883
2.3585e-05
-0.000109181
1.38688e-05
-8.56845e-05
5.47847e-06
-6.20357e-05
-2.02552e-06
-3.64928e-05
-1.1068e-05
-2.3623e-05
-5.65509e-06
1.46185e-06
6.68776e-07
-1.13385e-05
1.54375e-05
-1.75872e-05
2.77479e-05
-2.44491e-05
3.8201e-05
-3.25701e-05
4.70852e-05
-4.32874e-05
5.56236e-05
-5.79849e-05
6.56766e-05
-7.71549e-05
7.86464e-05
-9.98927e-05
9.44151e-05
-0.000124086
0.000111204
-0.000147158
0.000126426
-0.000166913
0.000137884
-0.000182153
0.000144543
-0.000192882
0.000146601
-0.000199969
0.000145054
-0.00020451
0.000141057
-0.000207375
0.000135573
-0.000208977
0.000129064
-0.000209059
0.000121435
-0.000206901
0.000112478
-0.000201694
0.00010202
-0.000192723
8.99972e-05
-0.000179597
7.66281e-05
-0.000162487
6.24302e-05
-0.000141958
4.80564e-05
-0.000118936
3.41695e-05
-9.47815e-05
2.14676e-05
-7.10599e-05
1.05655e-05
-4.93592e-05
1.88425e-06
-3.09639e-05
-4.52644e-06
-1.63467e-05
-9.13872e-06
-4.77893e-06
-1.35933e-05
3.00288e-06
-1.88498e-05
-2.06201e-05
-1.33507e-05
7.29242e-06
7.52016e-06
-1.9992e-05
2.20788e-05
-2.74389e-05
3.51948e-05
-3.60687e-05
4.68308e-05
-4.68332e-05
5.78497e-05
-6.09343e-05
6.97246e-05
-7.9027e-05
8.37694e-05
-0.000100543
0.000100163
-0.000123631
0.000117503
-0.00014578
0.000133352
-0.000164761
0.000145407
-0.000179339
0.000152463
-0.000189455
0.000154659
-0.000195907
0.000153053
-0.000199699
0.000148846
-0.000201556
0.000142913
-0.000201437
0.000135454
-0.000198679
0.000126306
-0.000192512
0.000115268
-0.000182237
0.000102203
-0.000167511
8.72943e-05
-0.000148597
7.10834e-05
-0.000126415
5.44462e-05
-0.000102388
3.84023e-05
-7.82146e-05
2.38834e-05
-5.5712e-05
1.1667e-05
-3.65053e-05
2.26092e-06
-2.14942e-05
-4.44569e-06
-1.05617e-05
-9.04829e-06
-3.01421e-06
-1.20739e-05
2.01935e-06
-1.41723e-05
4.64813e-06
-1.62221e-05
4.35675e-06
-1.85584e-05
-1.62633e-05
-2.11113e-05
1.40827e-05
1.4321e-05
-2.89069e-05
2.98744e-05
-3.7944e-05
4.42319e-05
-4.88579e-05
5.77446e-05
-6.25633e-05
7.15552e-05
-7.97247e-05
8.68859e-05
-0.000100054
0.000104099
-0.000122038
0.000122147
-0.000143348
0.000138813
-0.000161737
0.000151741
-0.00017587
0.00015954
-0.000185592
0.000162185
-0.000191512
0.000160578
-0.000194477
0.000156019
-0.000194941
0.00014931
-0.000192582
0.000140554
-0.000186714
0.000129587
-0.000176656
0.000116247
-0.000162039
0.000100652
-0.000143133
8.32959e-05
-0.000120906
6.5068e-05
-9.69232e-05
4.71003e-05
-7.3043e-05
3.0566e-05
-5.10571e-05
1.64164e-05
-3.23972e-05
5.22355e-06
-1.77998e-05
-2.93045e-06
-7.08225e-06
-8.45665e-06
4.15289e-07
-1.19432e-05
5.21543e-06
-1.38484e-05
7.76104e-06
-1.46195e-05
8.42671e-06
-1.4838e-05
7.30601e-06
-1.51014e-05
4.12707e-06
-1.53795e-05
-1.21363e-05
-2.91079e-05
2.20009e-05
2.11898e-05
-3.83407e-05
3.91072e-05
-4.9349e-05
5.52402e-05
-6.28064e-05
7.12021e-05
-7.92231e-05
8.79719e-05
-9.84973e-05
0.00010616
-0.000119452
0.000125053
-0.000140022
0.000142718
-0.000157998
0.000156789
-0.000171881
0.000165624
-0.000181281
0.000168939
-0.00018663
0.000167534
-0.000188763
0.000162711
-0.000187834
0.000155091
-0.0001833
0.000144775
-0.000174588
0.000131842
-0.00016126
0.000116259
-0.000143447
9.84341e-05
-0.000121991
7.91959e-05
-9.83871e-05
5.96916e-05
-7.44947e-05
4.11757e-05
-5.21537e-05
2.47593e-05
-3.2797e-05
1.12092e-05
-1.71964e-05
8.15794e-07
-5.34699e-06
-6.62582e-06
3.24009e-06
-1.15175e-05
9.06145e-06
-1.4278e-05
1.25184e-05
-1.54002e-05
1.40474e-05
-1.53774e-05
1.3884e-05
-1.44562e-05
1.22433e-05
-1.31972e-05
9.19947e-06
-1.20576e-05
4.66671e-06
-1.08467e-05
-7.46956e-06
-3.74955e-05
3.1279e-05
2.82174e-05
-4.84461e-05
5.00578e-05
-6.16247e-05
6.84188e-05
-7.74781e-05
8.70554e-05
-9.58701e-05
0.000106364
-0.000115914
0.000126204
-0.00013584
0.000144979
-0.000153549
0.000160426
-0.000167409
0.00017065
-0.000176749
0.000174965
-0.00018182
0.000174009
-0.000183214
0.000168928
-0.000180908
0.000160406
-0.000174412
0.000148595
-0.000163351
0.000133714
-0.000147575
0.000116066
-0.000127641
9.63251e-05
-0.00010483
7.56231e-05
-8.0914e-05
5.52797e-05
-5.77731e-05
3.65508e-05
-3.69857e-05
2.03882e-05
-1.95514e-05
7.32508e-06
-5.79306e-06
-2.54918e-06
4.56284e-06
-9.54011e-06
1.20186e-05
-1.40816e-05
1.68842e-05
-1.63832e-05
1.95381e-05
-1.69319e-05
2.03725e-05
-1.62346e-05
1.96762e-05
-1.46811e-05
1.76944e-05
-1.24743e-05
1.45882e-05
-1.0091e-05
1.03548e-05
-7.82421e-06
4.94521e-06
-5.43713e-06
-2.52435e-06
-4.63003e-05
4.21844e-05
3.53949e-05
-5.92238e-05
6.29813e-05
-7.45245e-05
8.37195e-05
-9.2165e-05
0.000104696
-0.000111418
0.000125617
-0.00013081
0.000145596
-0.000148367
0.000162537
-0.000162357
0.000174415
-0.000171941
0.000180234
-0.000176973
0.000179997
-0.000177828
0.000174864
-0.00017447
0.00016557
-0.000166489
0.000152425
-0.000153685
0.000135791
-0.000136251
0.00011628
-0.000115064
9.48788e-05
-9.16719e-05
7.2933e-05
-6.79323e-05
5.18836e-05
-4.55912e-05
3.29386e-05
-2.59321e-05
1.68917e-05
-9.61816e-06
4.07427e-06
3.20418e-06
-5.49727e-06
1.27925e-05
-1.21375e-05
1.9531e-05
-1.62786e-05
2.37793e-05
-1.83299e-05
2.58417e-05
-1.84456e-05
2.60832e-05
-1.71734e-05
2.49631e-05
-1.51145e-05
2.26849e-05
-1.24028e-05
1.9504e-05
-9.29344e-06
1.55167e-05
-6.10371e-06
1.06629e-05
-2.97041e-06
4.90928e-06
3.16442e-07
2.38493e-06
-5.55571e-05
5.49126e-05
4.28288e-05
-7.04386e-05
7.78628e-05
-8.74455e-05
0.000100726
-0.000105976
0.000123226
-0.000124876
0.000144517
-0.000142365
0.000163085
-0.000156626
0.000176797
-0.000166517
0.000184306
-0.000172072
0.000185789
-0.000172671
0.000180596
-0.00016867
0.000170863
-0.000159747
0.000156647
-0.000145864
0.000138542
-0.00012749
0.000117418
-0.000105753
9.45429e-05
-8.23201e-05
7.14459e-05
-5.90212e-05
4.96341e-05
-3.74181e-05
3.02805e-05
-1.85401e-05
1.40606e-05
-2.82961e-06
1.18123e-06
9.61462e-06
-8.36995e-06
1.8854e-05
-1.47367e-05
2.51589e-05
-1.84423e-05
2.88544e-05
-1.99741e-05
3.02982e-05
-1.97737e-05
3.00961e-05
-1.82435e-05
2.86719e-05
-1.57492e-05
2.62557e-05
-1.26983e-05
2.30895e-05
-9.23659e-06
1.93374e-05
-5.54128e-06
1.50309e-05
-1.79724e-06
1.00778e-05
1.98267e-06
4.49611e-06
5.89815e-06
6.88104e-06
-6.50775e-05
6.94449e-05
5.05452e-05
-8.1594e-05
9.43794e-05
-9.95924e-05
0.000118725
-0.000118008
0.000141642
-0.000135434
0.000161943
-0.000150094
0.000177745
-0.000160641
0.000187345
-0.000166733
0.000190398
-0.000167709
0.000186764
-0.000163504
0.000176391
-0.000154192
0.000161551
-0.000139864
0.000142319
-0.000121191
0.000119869
-9.94803e-05
9.57065e-05
-7.64513e-05
7.15139e-05
-5.38466e-05
4.88412e-05
-3.3047e-05
2.88345e-05
-1.48759e-05
1.21094e-05
3.92352e-07
-1.20768e-06
1.26172e-05
-1.10436e-05
2.17605e-05
-1.75133e-05
2.77949e-05
-2.0771e-05
3.10992e-05
-2.17467e-05
3.2306e-05
-2.11808e-05
3.17445e-05
-1.92123e-05
2.99585e-05
-1.64575e-05
2.7407e-05
-1.31977e-05
2.43725e-05
-9.6639e-06
2.09979e-05
-5.86193e-06
1.72972e-05
-1.84059e-06
1.32132e-05
2.28674e-06
8.66133e-06
6.53453e-06
3.77025e-06
1.07892e-05
1.06513e-05
-7.44648e-05
8.55215e-05
5.83881e-05
-9.20331e-05
0.000111948
-0.000110154
0.000136846
-0.0001275
0.000158988
-0.000142626
0.000177069
-0.000154033
0.000189151
-0.000161006
0.000194319
-0.000162759
0.000192151
-0.000158741
0.000182747
-0.00014963
0.00016728
-0.000135444
0.000147365
-0.000117032
0.000123907
-9.5826e-05
9.86634e-05
-7.35799e-05
7.34605e-05
-5.19553e-05
4.98893e-05
-3.21837e-05
2.90696e-05
-1.4931e-05
1.15818e-05
-3.57192e-07
-2.46438e-06
1.14582e-05
-1.3023e-05
2.02639e-05
-1.98493e-05
2.62232e-05
-2.34726e-05
2.96917e-05
-2.42395e-05
3.07977e-05
-2.28527e-05
2.99293e-05
-2.03124e-05
2.78919e-05
-1.71749e-05
2.5292e-05
-1.38576e-05
2.25515e-05
-1.04572e-05
1.97637e-05
-6.8761e-06
1.68729e-05
-2.97113e-06
1.3763e-05
1.26939e-06
1.03281e-05
5.72157e-06
6.51044e-06
1.03522e-05
2.57931e-06
1.47204e-05
1.32306e-05
-8.31998e-05
0.000102689
6.60325e-05
-0.000101116
0.000129864
-0.000118549
0.00015428
-0.000134124
0.000174562
-0.000146496
0.000189441
-0.000154493
0.000197148
-0.000157395
0.000197221
-0.00015434
0.000189096
-0.000145751
0.000174158
-0.00013223
0.000153758
-0.000114549
0.000129683
-9.42297e-05
0.000103588
-7.30653e-05
7.74991e-05
-5.26812e-05
5.30764e-05
-3.42242e-05
3.14323e-05
-1.82681e-05
1.31135e-05
-4.91483e-06
-1.77148e-06
5.83276e-06
-1.3212e-05
1.38927e-05
-2.1083e-05
1.94201e-05
-2.53768e-05
2.25551e-05
-2.66076e-05
2.36268e-05
-2.53112e-05
2.32714e-05
-2.24973e-05
2.17909e-05
-1.88319e-05
1.97377e-05
-1.51216e-05
1.75786e-05
-1.16986e-05
1.55543e-05
-8.43294e-06
1.36327e-05
-4.95455e-06
1.1636e-05
-9.74401e-07
9.39617e-06
3.50922e-06
6.80028e-06
8.31746e-06
3.84524e-06
1.33073e-05
1.04331e-06
1.75223e-05
1.42739e-05
-9.07904e-05
0.000120394
7.30852e-05
-0.000108361
0.000147434
-0.000124431
0.00017035
-0.000137696
0.000187827
-0.000146812
0.000198557
-0.000151334
0.00020167
-0.000149688
0.000195575
-0.00014234
0.000181748
-0.000129818
0.000161636
-0.000113241
0.000137182
-9.40853e-05
0.000110527
-7.41933e-05
8.36962e-05
-5.52128e-05
5.85185e-05
-3.82843e-05
3.6148e-05
-2.39734e-05
1.71214e-05
-1.23876e-05
1.52766e-06
-3.44457e-06
-1.07145e-05
2.99744e-06
-1.9654e-05
7.32303e-06
-2.54086e-05
1.01094e-05
-2.81631e-05
1.17621e-05
-2.82603e-05
1.24979e-05
-2.6047e-05
1.23472e-05
-2.23466e-05
1.15604e-05
-1.8045e-05
1.04349e-05
-1.39962e-05
9.29118e-06
-1.05548e-05
8.28968e-06
-7.43144e-06
7.34443e-06
-4.0093e-06
6.25406e-06
1.15968e-07
4.86182e-06
4.90146e-06
3.09315e-06
1.00861e-05
1.06192e-06
1.53385e-05
-4.56219e-07
1.90404e-05
1.38177e-05
-9.68229e-05
0.000138056
7.9161e-05
-0.000113405
0.000164016
-0.000127557
0.000184501
-0.000138172
0.000198442
-0.000144171
0.000204556
-0.000144638
0.000202138
-0.000138886
0.000189822
-0.000127834
0.000170696
-0.000112609
0.000146412
-9.48182e-05
0.000119391
-7.62842e-05
9.19934e-05
-5.87357e-05
6.61477e-05
-4.33884e-05
4.31711e-05
-3.08801e-05
2.36397e-05
-2.1375e-05
7.6162e-06
-1.47369e-05
-5.11043e-06
-1.05271e-05
-1.49242e-05
-7.8782e-06
-2.23029e-05
-5.84355e-06
-2.74432e-05
-3.84956e-06
-3.01571e-05
-1.8607e-06
-3.02491e-05
-6.48974e-08
-2.78428e-05
1.23478e-06
-2.36463e-05
1.92774e-06
-1.87379e-05
2.10985e-06
-1.41783e-05
2.03532e-06
-1.04803e-05
1.90762e-06
-7.30375e-06
1.71376e-06
-3.81545e-06
1.30931e-06
5.20417e-07
5.83152e-07
5.62762e-06
-4.72291e-07
1.11416e-05
-1.5543e-06
1.64205e-05
-1.72053e-06
1.92067e-05
1.20972e-05
-0.000100976
0.000155118
8.39143e-05
-0.000116074
0.000179114
-0.000127976
0.000196403
-0.000135674
0.000206141
-0.000138542
0.000207424
-0.00013487
0.000198466
-0.000125764
0.000180716
-0.000112214
0.000157146
-9.59127e-05
0.00013011
-7.87663e-05
0.000102245
-6.25629e-05
7.57899e-05
-4.86637e-05
5.22486e-05
-3.78494e-05
3.23567e-05
-3.04025e-05
1.61929e-05
-2.6159e-05
3.37268e-06
-2.438e-05
-6.88947e-06
-2.3733e-05
-1.55712e-05
-2.29369e-05
-2.3099e-05
-2.13443e-05
-2.90359e-05
-1.88708e-05
-3.26306e-05
-1.57388e-05
-3.33812e-05
-1.23144e-05
-3.12673e-05
-9.08671e-06
-2.6874e-05
-6.51122e-06
-2.13134e-05
-4.80883e-06
-1.58807e-05
-3.86528e-06
-1.14238e-05
-3.35961e-06
-7.80942e-06
-3.07202e-06
-4.10304e-06
-3.01137e-06
4.59762e-07
-3.24378e-06
5.86004e-06
-3.6868e-06
1.15846e-05
-3.72232e-06
1.6456e-05
-2.43729e-06
1.79216e-05
9.65986e-06
-0.000103087
0.0001711
8.71048e-05
-0.000116332
0.000192358
-0.000125797
0.000205868
-0.000130755
0.000211098
-0.000130025
0.000206695
-0.000123094
0.000191534
-0.000111568
0.000169191
-9.69525e-05
0.00014253
-8.11971e-05
0.000114355
-6.62083e-05
8.72558e-05
-5.35001e-05
6.30817e-05
-4.40486e-05
4.27971e-05
-3.82862e-05
2.65944e-05
-3.6065e-05
1.39717e-05
-3.64442e-05
3.75186e-06
-3.7746e-05
-5.5877e-06
-3.85132e-05
-1.4804e-05
-3.81432e-05
-2.3469e-05
-3.65204e-05
-3.06586e-05
-3.36371e-05
-3.55138e-05
-2.95901e-05
-3.74283e-05
-2.46746e-05
-3.61827e-05
-1.94546e-05
-3.20939e-05
-1.46841e-05
-2.60839e-05
-1.10443e-05
-1.95205e-05
-8.79563e-06
-1.36725e-05
-7.62802e-06
-8.97704e-06
-6.98882e-06
-4.74224e-06
-6.58608e-06
5.70188e-08
-6.36231e-06
5.63627e-06
-6.07486e-06
1.12971e-05
-5.0548e-06
1.54359e-05
-2.59366e-06
1.54605e-05
7.0662e-06
-0.000103165
0.000185625
8.86401e-05
-0.000114345
0.000203538
-0.00012136
0.000212884
-0.000123617
0.000213355
-0.000119526
0.000202604
-0.000110286
0.000182294
-9.7569e-05
0.000156474
-8.32705e-05
0.000128231
-6.93722e-05
0.000100456
-5.75667e-05
7.54503e-05
-4.90286e-05
5.45435e-05
-4.43687e-05
3.81372e-05
-4.35087e-05
2.57344e-05
-4.54113e-05
1.58743e-05
-4.82471e-05
6.58767e-06
-5.0494e-05
-3.34074e-06
-5.16641e-05
-1.3634e-05
-5.16875e-05
-2.34456e-05
-5.04193e-05
-3.19268e-05
-4.76686e-05
-3.82645e-05
-4.33246e-05
-4.17723e-05
-3.74928e-05
-4.20146e-05
-3.06342e-05
-3.89526e-05
-2.3618e-05
-3.31001e-05
-1.75402e-05
-2.55983e-05
-1.32692e-05
-1.79435e-05
-1.09195e-05
-1.13267e-05
-9.78445e-06
-5.8773e-06
-9.05276e-06
-6.74674e-07
-8.33016e-06
4.91367e-06
-7.26091e-06
1.02279e-05
-5.35797e-06
1.3533e-05
-2.26756e-06
1.23701e-05
4.79864e-06
-0.000101384
0.000198485
8.85245e-05
-0.000110487
0.000212641
-0.000115212
0.000217609
-0.000114467
0.00021261
-0.000107958
0.000196095
-9.74319e-05
0.000171768
-8.4746e-05
0.000143788
-7.19108e-05
0.000115396
-6.07653e-05
8.93109e-05
-5.27011e-05
6.73861e-05
-4.85075e-05
5.03499e-05
-4.82414e-05
3.78712e-05
-5.09282e-05
2.84212e-05
-5.47119e-05
1.96579e-05
-5.80075e-05
9.88323e-06
-6.03817e-05
-9.66484e-07
-6.19201e-05
-1.20957e-05
-6.25552e-05
-2.28104e-05
-6.20203e-05
-3.24618e-05
-5.99715e-05
-4.03133e-05
-5.61031e-05
-4.56407e-05
-5.02699e-05
-4.78478e-05
-4.2648e-05
-4.65744e-05
-3.39234e-05
-4.18247e-05
-2.53029e-05
-3.42188e-05
-1.8196e-05
-2.50504e-05
-1.35639e-05
-1.59588e-05
-1.12124e-05
-8.22881e-06
-9.96629e-06
-1.92076e-06
-8.78631e-06
3.73369e-06
-7.15264e-06
8.59422e-06
-4.71809e-06
1.10985e-05
-1.68327e-06
9.33528e-06
3.11537e-06
-9.78963e-05
0.000209533
8.68478e-05
-0.000104875
0.000219619
-0.000107552
0.000220287
-0.000104262
0.00020932
-9.62336e-05
0.000188066
-8.53962e-05
0.000160931
-7.37263e-05
0.000132118
-6.31477e-05
0.000104818
-5.5235e-05
8.13982e-05
-5.10108e-05
6.31619e-05
-5.06914e-05