/*--------------------------------*- C++ -*----------------------------------*\
| =========                 |                                                 |
| \\      /  F ield         | OpenFOAM: The Open Source CFD Toolbox           |
|  \\    /   O peration     | Version:  v2012                                 |
|   \\  /    A nd           | Website:  www.openfoam.com                      |
|    \\/     M anipulation  |                                                 |
\*---------------------------------------------------------------------------*/
FoamFile
{
    version     2.0;
    format      ascii;
    class       volVectorField;
    location    "545";
    object      U;
}
// * * * * * * * * * * * * * * * * * * * * * * * * * * * * * * * * * * * * * //

dimensions      [0 1 -1 0 0 0 0];


internalField   nonuniform List<vector> 
6018
(
(0.0245083 -0.457179 0)
(0.0240093 -0.505077 0)
(0.0234457 -0.548436 0)
(0.0229488 -0.588111 0)
(0.0219128 -0.623876 0)
(0.020344 -0.655803 0)
(0.019059 -0.684609 0)
(0.0182269 -0.711188 0)
(0.0177227 -0.736244 0)
(0.0174757 -0.760314 0)
(0.0174413 -0.783832 0)
(0.017567 -0.807132 0)
(0.0177577 -0.830422 0)
(0.0179287 -0.853773 0)
(0.0180284 -0.877226 0)
(0.0179533 -0.900987 0)
(0.0175525 -0.925401 0)
(0.0164289 -0.949833 0)
(0.0121691 -0.970498 0)
(0.00451662 -0.984115 0)
(0.0553079 -0.949021 0)
(0.047831 -0.971134 0)
(0.0414311 -0.987057 0)
(0.0358469 -0.998143 0)
(0.0312307 -1.00554 0)
(0.0276237 -1.0109 0)
(0.0249212 -1.01489 0)
(0.0229735 -1.01775 0)
(0.0216309 -1.01969 0)
(0.0207774 -1.02088 0)
(0.0203195 -1.02147 0)
(0.0201181 -1.02163 0)
(0.019994 -1.02148 0)
(0.0199248 -1.021 0)
(0.0199562 -1.02014 0)
(0.0199594 -1.01898 0)
(0.0197334 -1.0177 0)
(0.0196367 -1.01587 0)
(0.0199028 -1.01028 0)
(0.00980173 -1.00201 0)
(0.0645781 -1.07555 0)
(0.0541446 -1.07899 0)
(0.0453548 -1.08035 0)
(0.0381263 -1.0801 0)
(0.0323183 -1.07867 0)
(0.0277683 -1.07635 0)
(0.0242901 -1.07334 0)
(0.0216895 -1.06976 0)
(0.0197755 -1.0657 0)
(0.0183753 -1.06126 0)
(0.0173479 -1.05654 0)
(0.0166666 -1.05143 0)
(0.0163819 -1.04556 0)
(0.0162397 -1.03969 0)
(0.0159684 -1.03375 0)
(0.0155093 -1.02763 0)
(0.0147364 -1.02133 0)
(0.013559 -1.01443 0)
(0.0113579 -1.00687 0)
(0.0054966 -1.00124 0)
(0.0652717 -1.11056 0)
(0.0534046 -1.1093 0)
(0.0435095 -1.10663 0)
(0.035458 -1.10293 0)
(0.0290501 -1.09846 0)
(0.0240488 -1.09342 0)
(0.020218 -1.08792 0)
(0.01734 -1.08205 0)
(0.0152139 -1.07584 0)
(0.0136531 -1.06934 0)
(0.0124965 -1.06262 0)
(0.0116644 -1.05571 0)
(0.0111431 -1.04859 0)
(0.0107787 -1.04124 0)
(0.0104049 -1.03375 0)
(0.00991826 -1.02628 0)
(0.00921269 -1.01884 0)
(0.00818404 -1.01133 0)
(0.00630716 -1.0045 0)
(0.00254171 -1.00072 0)
(0.0640193 -1.12656 0)
(0.0509328 -1.12318 0)
(0.0401312 -1.11848 0)
(0.0314368 -1.1129 0)
(0.0245681 -1.10676 0)
(0.0192197 -1.10022 0)
(0.0151099 -1.0934 0)
(0.0119942 -1.08635 0)
(0.00965721 -1.0791 0)
(0.00790824 -1.07169 0)
(0.00659406 -1.06414 0)
(0.0056227 -1.05647 0)
(0.00494548 -1.04865 0)
(0.00446942 -1.04068 0)
(0.00408287 -1.03269 0)
(0.00371895 -1.02485 0)
(0.00333247 -1.0172 0)
(0.00286941 -1.00982 0)
(0.00211509 -1.00367 0)
(0.000789179 -1.00058 0)
(0.0614082 -1.13717 0)
(0.0469434 -1.13211 0)
(0.0352801 -1.1257 0)
(0.0260781 -1.11862 0)
(0.0189116 -1.11121 0)
(0.0133769 -1.10365 0)
(0.00913483 -1.09601 0)
(0.00591471 -1.08831 0)
(0.0034866 -1.08056 0)
(0.00165309 -1.07277 0)
(0.000268763 -1.06494 0)
(-0.000767014 -1.05704 0)
(-0.00152439 -1.04904 0)
(-0.00204653 -1.04094 0)
(-0.00237896 -1.03286 0)
(-0.00254239 -1.02495 0)
(-0.00254289 -1.01726 0)
(-0.00236977 -1.00986 0)
(-0.00183992 -1.00368 0)
(-0.000701551 -1.00058 0)
(0.057392 -1.14375 0)
(0.0417031 -1.13695 0)
(0.0292925 -1.12878 0)
(0.0198045 -1.12035 0)
(0.012562 -1.11198 0)
(0.00703834 -1.1038 0)
(0.00282112 -1.0958 0)
(-0.000382575 -1.08794 0)
(-0.00280503 -1.08021 0)
(-0.00465223 -1.07255 0)
(-0.0060602 -1.06496 0)
(-0.00714001 -1.05737 0)
(-0.00796705 -1.04972 0)
(-0.00852163 -1.04199 0)
(-0.00882017 -1.03424 0)
(-0.00883022 -1.0266 0)
(-0.00848655 -1.01903 0)
(-0.00772694 -1.01143 0)
(-0.00605743 -1.00454 0)
(-0.00246389 -1.00073 0)
(0.052514 -1.14043 0)
(0.0348714 -1.13077 0)
(0.0219345 -1.12109 0)
(0.01262 -1.11164 0)
(0.00571995 -1.10288 0)
(0.000526487 -1.09475 0)
(-0.00342709 -1.08724 0)
(-0.00640322 -1.08018 0)
(-0.00863679 -1.07349 0)
(-0.0103756 -1.06683 0)
(-0.0117571 -1.06035 0)
(-0.0128509 -1.05382 0)
(-0.0137309 -1.04723 0)
(-0.014319 -1.04094 0)
(-0.0146139 -1.03453 0)
(-0.014594 -1.02812 0)
(-0.0141311 -1.02162 0)
(-0.0131822 -1.01457 0)
(-0.0111568 -1.00692 0)
(-0.00543555 -1.00125 0)
(0.0419549 -1.09137 0)
(0.0241111 -1.07674 0)
(0.0125547 -1.06408 0)
(0.00455201 -1.05425 0)
(-0.00126422 -1.04697 0)
(-0.00563687 -1.04149 0)
(-0.00895021 -1.03728 0)
(-0.0115047 -1.03396 0)
(-0.013505 -1.03128 0)
(-0.0150667 -1.02909 0)
(-0.0162775 -1.02728 0)
(-0.0171726 -1.02573 0)
(-0.0178789 -1.02432 0)
(-0.0184762 -1.02289 0)
(-0.0189581 -1.02135 0)
(-0.0192501 -1.01971 0)
(-0.0192752 -1.01812 0)
(-0.0193754 -1.01607 0)
(-0.0197518 -1.0103 0)
(-0.00976724 -1.00202 0)
(0.0203118 -0.76311 0)
(0.00968062 -0.735922 0)
(0.00238418 -0.719201 0)
(-0.0023588 -0.713207 0)
(-0.00585675 -0.713848 0)
(-0.00823731 -0.71972 0)
(-0.0102896 -0.729569 0)
(-0.0119647 -0.74252 0)
(-0.0133284 -0.75788 0)
(-0.0144528 -0.775143 0)
(-0.0153925 -0.793928 0)
(-0.0161718 -0.813935 0)
(-0.0167877 -0.834916 0)
(-0.0172664 -0.856664 0)
(-0.0175971 -0.879017 0)
(-0.0176832 -0.90203 0)
(-0.0173842 -0.925952 0)
(-0.0163277 -0.95009 0)
(-0.0121235 -0.97059 0)
(-0.0044956 -0.984127 0)
(-0.0016898 0.0400207 0)
(0.000632601 0.0514836 0)
(0.00299358 0.0542391 0)
(0.00399924 0.0487677 0)
(0.00337735 0.0383105 0)
(0.00180624 0.0269739 0)
(0.000487952 0.0178499 0)
(-0.000300954 0.0122824 0)
(-0.000873563 0.0106596 0)
(-0.0014261 0.0130645 0)
(-0.00234325 0.0200203 0)
(-0.00247306 0.0298514 0)
(-0.00161019 0.0396578 0)
(-0.000291314 0.0473073 0)
(0.000532445 0.0503181 0)
(0.000584839 0.049645 0)
(-0.000390382 0.0478199 0)
(-0.0024861 0.0469735 0)
(-0.00470493 0.0476031 0)
(-0.00444228 0.0485957 0)
(-0.00281309 0.048101 0)
(-0.00148183 0.0454091 0)
(-0.000525121 0.0404111 0)
(0.000528303 0.03054 0)
(0.00165903 0.0168658 0)
(0.00289415 -0.00608602 0)
(0.00288629 -0.037036 0)
(0.00402995 -0.0734581 0)
(0.00744473 -0.118065 0)
(0.0119024 -0.169179 0)
(0.0169809 -0.22556 0)
(0.0216207 -0.285978 0)
(0.0241282 -0.346613 0)
(0.0247057 -0.404193 0)
(-0.0203742 0.0922502 0)
(-0.0102022 0.111366 0)
(0.00119197 0.11998 0)
(0.0105446 0.117611 0)
(0.0155125 0.105564 0)
(0.0155143 0.0874291 0)
(0.0117187 0.0683417 0)
(0.0058616 0.0533588 0)
(-0.000712739 0.045753 0)
(-0.006998 0.0462737 0)
(-0.012822 0.0554254 0)
(-0.0148458 0.0680291 0)
(-0.0134714 0.0793031 0)
(-0.00907453 0.0872807 0)
(-0.00284798 0.0886469 0)
(0.00123015 0.0863681 0)
(0.00196317 0.0811795 0)
(0.00161529 0.0727448 0)
(0.00198511 0.0601338 0)
(0.00275437 0.0428439 0)
(0.00375622 0.0177097 0)
(0.00837935 -0.0171223 0)
(0.0174762 -0.0668947 0)
(0.0290061 -0.14052 0)
(0.0418815 -0.226416 0)
(0.0537222 -0.320733 0)
(0.0635785 -0.41847 0)
(0.0715052 -0.515521 0)
(0.0771621 -0.607667 0)
(0.0799944 -0.691986 0)
(0.0796875 -0.76606 0)
(0.0763249 -0.828501 0)
(0.0704854 -0.879295 0)
(0.0629764 -0.918964 0)
(-0.0401353 0.140418 0)
(-0.0219706 0.15829 0)
(-0.00238444 0.165325 0)
(0.0147265 0.162498 0)
(0.0262268 0.151098 0)
(0.0302021 0.133324 0)
(0.0266994 0.112831 0)
(0.017455 0.0944142 0)
(0.00502845 0.0825581 0)
(-0.00800303 0.0791472 0)
(-0.0197062 0.0836718 0)
(-0.0211747 0.0888226 0)
(-0.0168696 0.0903983 0)
(-0.00814411 0.0868211 0)
(0.000624835 0.0777988 0)
(0.00673585 0.0644463 0)
(0.010615 0.0453782 0)
(0.0146927 0.0174563 0)
(0.0212746 -0.02254 0)
(0.0329847 -0.0820451 0)
(0.0510888 -0.164598 0)
(0.0733386 -0.265249 0)
(0.0961637 -0.376443 0)
(0.115924 -0.491057 0)
(0.130346 -0.602626 0)
(0.139409 -0.705969 0)
(0.143144 -0.797509 0)
(0.142035 -0.875106 0)
(0.136783 -0.937876 0)
(0.12813 -0.985941 0)
(0.116834 -1.02036 0)
(0.103604 -1.04415 0)
(0.0899693 -1.05974 0)
(0.0766584 -1.06935 0)
(-0.0578865 0.178659 0)
(-0.0305999 0.191045 0)
(-0.00291818 0.193105 0)
(0.0210503 0.18705 0)
(0.0376967 0.17459 0)
(0.044955 0.157083 0)
(0.0421445 0.137301 0)
(0.0304479 0.1187 0)
(0.0130207 0.105005 0)
(-0.00535645 0.0978562 0)
(-0.0196058 0.0923063 0)
(-0.018961 0.0832246 0)
(-0.0108143 0.0688443 0)
(0.00286342 0.0487284 0)
(0.0166264 0.0231932 0)
(0.027817 -0.0104384 0)
(0.0400828 -0.058987 0)
(0.0580985 -0.127942 0)
(0.0832533 -0.21941 0)
(0.11346 -0.330325 0)
(0.144318 -0.452587 0)
(0.171657 -0.575913 0)
(0.192277 -0.691382 0)
(0.204356 -0.793108 0)
(0.207814 -0.878405 0)
(0.203892 -0.946516 0)
(0.194161 -0.998541 0)
(0.180319 -1.03639 0)
(0.163948 -1.06274 0)
(0.146478 -1.08079 0)
(0.12882 -1.09296 0)
(0.111402 -1.10156 0)
(0.0946406 -1.10707 0)
(0.0790935 -1.10996 0)
(-0.0698502 0.196926 0)
(-0.0338598 0.201989 0)
(0.000573404 0.198567 0)
(0.0295227 0.189137 0)
(0.0499075 0.175016 0)
(0.0594757 0.157558 0)
(0.0570408 0.138616 0)
(0.0434964 0.12059 0)
(0.0226874 0.105345 0)
(0.00237059 0.0914291 0)
(-0.00779465 0.0731289 0)
(-0.00360022 0.048876 0)
(0.010345 0.0172466 0)
(0.0287751 -0.0222387 0)
(0.0497798 -0.0734977 0)
(0.0742756 -0.143049 0)
(0.104784 -0.234942 0)
(0.141202 -0.346804 0)
(0.179841 -0.471573 0)
(0.215225 -0.598402 0)
(0.242704 -0.716942 0)
(0.259874 -0.819816 0)
(0.266336 -0.903441 0)
(0.263103 -0.967702 0)
(0.252145 -1.01491 0)
(0.235833 -1.04847 0)
(0.216386 -1.07208 0)
(0.19559 -1.08894 0)
(0.174627 -1.10156 0)
(0.154109 -1.11141 0)
(0.134268 -1.11882 0)
(0.115076 -1.12417 0)
(0.0966198 -1.12733 0)
(0.0793766 -1.1281 0)
(-0.0737846 0.192393 0)
(-0.0315874 0.188775 0)
(0.00743392 0.180671 0)
(0.0397985 0.169122 0)
(0.0627042 0.154379 0)
(0.0737478 0.137247 0)
(0.0714976 0.119054 0)
(0.0568378 0.101017 0)
(0.0351605 0.0823025 0)
(0.0179039 0.0595672 0)
(0.0140732 0.0284595 0)
(0.0250265 -0.0124986 0)
(0.0471212 -0.0651504 0)
(0.0766528 -0.133276 0)
(0.112529 -0.220757 0)
(0.154278 -0.327885 0)
(0.199578 -0.450071 0)
(0.243504 -0.578103 0)
(0.28028 -0.700581 0)
(0.305681 -0.807921 0)
(0.31816 -0.895123 0)
(0.318631 -0.961445 0)
(0.309425 -1.0093 0)
(0.293326 -1.04279 0)
(0.272954 -1.06628 0)
(0.250438 -1.08347 0)
(0.227279 -1.097 0)
(0.204348 -1.10839 0)
(0.181973 -1.11823 0)
(0.160167 -1.12652 0)
(0.138918 -1.13314 0)
(0.118175 -1.13796 0)
(0.0979153 -1.1405 0)
(0.0786934 -1.14025 0)
(-0.0696935 0.16549 0)
(-0.0238351 0.156394 0)
(0.0171133 0.145328 0)
(0.0510355 0.13264 0)
(0.0754893 0.117822 0)
(0.0876842 0.101083 0)
(0.0857925 0.0830382 0)
(0.0712818 0.0633598 0)
(0.0528283 0.0392878 0)
(0.0430073 0.00629923 0)
(0.0488977 -0.0400996 0)
(0.0712548 -0.103034 0)
(0.106905 -0.184614 0)
(0.151988 -0.28498 0)
(0.202562 -0.401208 0)
(0.254338 -0.527137 0)
(0.301399 -0.652783 0)
(0.338052 -0.767157 0)
(0.360616 -0.862313 0)
(0.368685 -0.935501 0)
(0.36434 -0.988401 0)
(0.350842 -1.02519 0)
(0.33147 -1.05076 0)
(0.308874 -1.0694 0)
(0.284847 -1.08419 0)
(0.260424 -1.09689 0)
(0.236197 -1.10832 0)
(0.212444 -1.11871 0)
(0.189124 -1.12796 0)
(0.166053 -1.13584 0)
(0.14325 -1.1422 0)
(0.120823 -1.14689 0)
(0.0985923 -1.14913 0)
(0.0768278 -1.14946 0)
(-0.0607543 0.129283 0)
(-0.0139352 0.116715 0)
(0.0277777 0.103199 0)
(0.0627307 0.0885924 0)
(0.0884765 0.072551 0)
(0.101803 0.0549348 0)
(0.100706 0.0354246 0)
(0.0888641 0.0121524 0)
(0.0783917 -0.0199073 0)
(0.0809245 -0.0673852 0)
(0.101396 -0.135413 0)
(0.139807 -0.225178 0)
(0.190376 -0.333068 0)
(0.247167 -0.453975 0)
(0.303468 -0.580171 0)
(0.352608 -0.701337 0)
(0.388697 -0.807178 0)
(0.408792 -0.8916 0)
(0.413468 -0.953814 0)
(0.4058 -0.997213 0)
(0.389699 -1.027 0)
(0.368619 -1.04822 0)
(0.344984 -1.06463 0)
(0.320249 -1.07857 0)
(0.295096 -1.09118 0)
(0.269727 -1.10274 0)
(0.244543 -1.11313 0)
(0.219745 -1.12229 0)
(0.195223 -1.13011 0)
(0.170954 -1.13596 0)
(0.146998 -1.14054 0)
(0.123489 -1.14419 0)
(0.100145 -1.14676 0)
(0.0758957 -1.14647 0)
(-0.0502369 0.0916276 0)
(-0.00231084 0.0764781 0)
(0.0402175 0.0601711 0)
(0.0761201 0.0425122 0)
(0.102968 0.023685 0)
(0.117112 0.00350993 0)
(0.117947 -0.0192156 0)
(0.113344 -0.049526 0)
(0.116083 -0.0953096 0)
(0.135431 -0.16317 0)
(0.173767 -0.25495 0)
(0.227125 -0.365801 0)
(0.287552 -0.488244 0)
(0.346941 -0.613102 0)
(0.397529 -0.729433 0)
(0.433216 -0.827932 0)
(0.451628 -0.903883 0)
(0.45416 -0.958075 0)
(0.444572 -0.995019 0)
(0.427096 -1.02039 0)
(0.405181 -1.03905 0)
(0.380991 -1.05424 0)
(0.355552 -1.0675 0)
(0.329486 -1.07923 0)
(0.303143 -1.08927 0)
(0.276908 -1.09649 0)
(0.250965 -1.10316 0)
(0.225265 -1.10766 0)
(0.199881 -1.11038 0)
(0.174693 -1.11151 0)
(0.149576 -1.111 0)
(0.124814 -1.10901 0)
(0.10018 -1.10659 0)
(0.0725573 -1.10235 0)
(-0.0378323 0.05562 0)
(0.0114903 0.0377856 0)
(0.0552296 0.0180994 0)
(0.0922726 -0.00341836 0)
(0.119777 -0.025963 0)
(0.135127 -0.0500042 0)
(0.141435 -0.079516 0)
(0.148971 -0.12271 0)
(0.168957 -0.187311 0)
(0.207168 -0.276301 0)
(0.261433 -0.386123 0)
(0.324023 -0.507727 0)
(0.385666 -0.630224 0)
(0.437378 -0.742243 0)
(0.473021 -0.834939 0)
(0.49052 -0.90465 0)
(0.491853 -0.95316 0)
(0.48125 -0.985701 0)
(0.463129 -1.00814 0)
(0.440763 -1.02494 0)
(0.416242 -1.03853 0)
(0.390604 -1.0497 0)
(0.364292 -1.05766 0)
(0.33736 -1.06353 0)
(0.309894 -1.06534 0)
(0.282279 -1.06246 0)
(0.254258 -1.0534 0)
(0.225773 -1.0371 0)
(0.197273 -1.01298 0)
(0.169174 -0.980208 0)
(0.142013 -0.939702 0)
(0.115645 -0.894231 0)
(0.0889498 -0.850382 0)
(0.0583117 -0.811099 0)
(0.00196829 -0.00224152 0)
(0.00245664 -0.00781054 0)
(0.00081945 -0.0108504 0)
(-0.00135744 -0.00600376 0)
(-0.00288286 0.00653347 0)
(-0.00325104 0.0232567 0)
(0.00652632 -0.00339595 0)
(0.00621162 -0.00934583 0)
(-0.00202433 -0.00606192 0)
(-0.0139795 0.0112605 0)
(-0.0230824 0.0372121 0)
(-0.025405 0.0658338 0)
(0.0107011 -0.00283993 0)
(0.00500256 -0.00417831 0)
(-0.0151853 0.0122064 0)
(-0.0374699 0.0430674 0)
(-0.0506124 0.0791636 0)
(-0.0511657 0.113009 0)
(0.0117941 -0.00100903 0)
(-0.00487285 0.00534836 0)
(-0.0408219 0.0366078 0)
(-0.0713651 0.0801618 0)
(-0.0837459 0.122035 0)
(-0.0779173 0.155639 0)
(0.00886627 0.000530972 0)
(-0.0270672 0.0186616 0)
(-0.0791168 0.0650113 0)
(-0.111516 0.115893 0)
(-0.116486 0.155931 0)
(-0.100196 0.182936 0)
(-0.000916273 0.00275995 0)
(-0.0636053 0.0363162 0)
(-0.125404 0.0927557 0)
(-0.150443 0.141597 0)
(-0.142028 0.172434 0)
(-0.113471 0.188127 0)
(-0.0195428 0.00587351 0)
(-0.111201 0.0553257 0)
(-0.17153 0.112593 0)
(-0.180853 0.150527 0)
(-0.156379 0.171858 0)
(-0.116177 0.170889 0)
(-0.046458 0.0129279 0)
(-0.163157 0.0709614 0)
(-0.209053 0.119221 0)
(-0.197641 0.142332 0)
(-0.158649 0.145886 0)
(-0.109976 0.139761 0)
(-0.0852694 0.0237276 0)
(-0.210188 0.0782278 0)
(-0.232738 0.113577 0)
(-0.202505 0.121016 0)
(-0.152787 0.115923 0)
(-0.100882 0.105066 0)
(-0.133122 0.0315659 0)
(-0.245488 0.0741507 0)
(-0.242226 0.0946857 0)
(-0.199392 0.0943713 0)
(-0.143759 0.0842139 0)
(-0.0898315 0.0710895 0)
(-0.0229117 0.020551 0)
(0.0284289 -0.000498184 0)
(0.0738852 -0.0242345 0)
(0.111965 -0.0499824 0)
(0.140393 -0.0770699 0)
(0.159677 -0.108076 0)
(0.176306 -0.149916 0)
(0.200522 -0.210937 0)
(0.239991 -0.295534 0)
(0.295236 -0.401385 0)
(0.359509 -0.519814 0)
(0.42265 -0.638674 0)
(0.475157 -0.746138 0)
(0.510679 -0.833671 0)
(0.527481 -0.898288 0)
(0.527931 -0.942398 0)
(0.51663 -0.971524 0)
(0.498146 -0.991338 0)
(0.475822 -1.00566 0)
(0.451374 -1.01567 0)
(0.425239 -1.02251 0)
(0.397321 -1.02363 0)
(0.367317 -1.01676 0)
(0.334674 -0.997782 0)
(0.29969 -0.964198 0)
(0.262937 -0.914831 0)
(0.22466 -0.848628 0)
(0.185785 -0.767102 0)
(0.147649 -0.672699 0)
(0.11157 -0.568815 0)
(0.077742 -0.458704 0)
(0.043793 -0.343036 0)
(0.00884989 -0.233119 0)
(-0.0117112 -0.143925 0)
(-0.00472295 -0.0140178 0)
(0.0491304 -0.0390025 0)
(0.0964996 -0.0671833 0)
(0.136093 -0.0977483 0)
(0.167775 -0.131784 0)
(0.195411 -0.174299 0)
(0.226872 -0.232788 0)
(0.269879 -0.312684 0)
(0.326805 -0.413238 0)
(0.392633 -0.526756 0)
(0.457365 -0.641126 0)
(0.51086 -0.744091 0)
(0.546586 -0.82712 0)
(0.563016 -0.887535 0)
(0.562878 -0.928061 0)
(0.551002 -0.954119 0)
(0.532231 -0.970812 0)
(0.509503 -0.980962 0)
(0.48373 -0.985915 0)
(0.454726 -0.981877 0)
(0.421534 -0.96552 0)
(0.383228 -0.932943 0)
(0.339572 -0.881198 0)
(0.291212 -0.809264 0)
(0.239719 -0.720047 0)
(0.186936 -0.616113 0)
(0.134943 -0.503285 0)
(0.086072 -0.3887 0)
(0.0423386 -0.279965 0)
(0.00534221 -0.184341 0)
(-0.0233152 -0.106021 0)
(-0.0480701 -0.0443076 0)
(-0.075733 0.00305002 0)
(-0.0978803 0.00819995 0)
(0.0165664 -0.0480214 0)
(0.0732763 -0.0773243 0)
(0.123147 -0.110388 0)
(0.166088 -0.147458 0)
(0.204586 -0.191641 0)
(0.244478 -0.248796 0)
(0.292525 -0.324371 0)
(0.352014 -0.419114 0)
(0.419642 -0.526954 0)
(0.486387 -0.636554 0)
(0.541849 -0.735617 0)
(0.578916 -0.815339 0)
(0.595881 -0.872793 0)
(0.595752 -0.910524 0)
(0.583648 -0.93359 0)
(0.564144 -0.945919 0)
(0.539648 -0.951077 0)
(0.510416 -0.945012 0)
(0.475362 -0.92502 0)
(0.433249 -0.887053 0)
(0.383548 -0.828343 0)
(0.326837 -0.748492 0)
(0.265234 -0.650308 0)
(0.201986 -0.539562 0)
(0.14068 -0.424054 0)
(0.0848934 -0.311996 0)
(0.0379634 -0.212065 0)
(0.00190673 -0.131102 0)
(-0.0235241 -0.0710683 0)
(-0.040154 -0.0283292 0)
(-0.0514145 0.000437567 0)
(-0.061833 0.0189904 0)
(-0.076393 0.0255483 0)
(-0.0746813 0.013284 0)
(0.0413393 -0.082094 0)
(0.101496 -0.116271 0)
(0.155273 -0.155457 0)
(0.204313 -0.201395 0)
(0.252947 -0.25815 0)
(0.306967 -0.330362 0)
(0.36994 -0.419667 0)
(0.439974 -0.521769 0)
(0.50931 -0.626702 0)
(0.567749 -0.72248 0)
(0.607543 -0.799938 0)
(0.626287 -0.855629 0)
(0.626631 -0.891314 0)
(0.614121 -0.911258 0)
(0.593103 -0.919281 0)
(0.565375 -0.915554 0)
(0.530542 -0.897074 0)
(0.487365 -0.860413 0)
(0.435044 -0.802455 0)
(0.373902 -0.722857 0)
(0.30606 -0.624515 0)
(0.235168 -0.513644 0)
(0.165906 -0.398717 0)
(0.102977 -0.28875 0)
(0.0501422 -0.191627 0)
(0.00968896 -0.112952 0)
(-0.0184621 -0.0543323 0)
(-0.0369607 -0.0122117 0)
(-0.0485843 0.0162351 0)
(-0.0550763 0.0330323 0)
(-0.0589589 0.0400477 0)
(-0.0631367 0.0394553 0)
(-0.0676757 0.0302837 0)
(-0.0568098 0.00941389 0)
(0.0702942 -0.116831 0)
(0.134975 -0.156819 0)
(0.194682 -0.203794 0)
(0.25245 -0.2605 0)
(0.313012 -0.330327 0)
(0.380189 -0.415001 0)
(0.453242 -0.511764 0)
(0.5258 -0.612349 0)
(0.588128 -0.705508 0)
(0.631835 -0.78161 0)
(0.653612 -0.836293 0)
(0.65551 -0.870355 0)
(0.642728 -0.886132 0)
(0.619387 -0.890429 0)
(0.586993 -0.877755 0)
(0.545367 -0.847502 0)
(0.493416 -0.795831 0)
(0.431152 -0.72207 0)
(0.360385 -0.62823 0)
(0.284648 -0.520132 0)
(0.208785 -0.406067 0)
(0.137995 -0.295244 0)
(0.07679 -0.195744 0)
(0.0279912 -0.112892 0)
(-0.00781986 -0.0487492 0)
(-0.0323848 -0.0012733 0)
(-0.0479313 0.0321192 0)
(-0.0565916 0.0532665 0)
(-0.0596366 0.0647362 0)
(-0.059116 0.0676074 0)
(-0.0568877 0.0629063 0)
(-0.0547879 0.0524578 0)
(-0.0524165 0.0356608 0)
(-0.0387336 0.00977064 0)
(0.104073 -0.152813 0)
(0.174562 -0.199839 0)
(0.242369 -0.255962 0)
(0.310766 -0.323919 0)
(0.382776 -0.404974 0)
(0.459347 -0.497073 0)
(0.535568 -0.593703 0)
(0.602544 -0.68478 0)
(0.651431 -0.760507 0)
(0.677502 -0.815231 0)
(0.681858 -0.848583 0)
(0.669199 -0.862805 0)
(0.643619 -0.861647 0)
(0.606227 -0.841229 0)
(0.557184 -0.800406 0)
(0.496611 -0.737129 0)
(0.425505 -0.651938 0)
(0.347051 -0.549492 0)
(0.266008 -0.437277 0)
(0.187814 -0.324442 0)
(0.11746 -0.219529 0)
(0.0585533 -0.128812 0)
(0.0126762 -0.0553679 0)
(-0.020794 0.000903916 0)
(-0.0438256 0.0424394 0)
(-0.0577234 0.0710939 0)
(-0.0639734 0.088067 0)
(-0.0642303 0.0959035 0)
(-0.0611171 0.0959692 0)
(-0.0545706 0.0892389 0)
(-0.0469656 0.0770214 0)
(-0.0399044 0.0605528 0)
(-0.0323376 0.0390271 0)
(-0.0194422 0.00915381 0)
(0.143536 -0.189993 0)
(0.221462 -0.245549 0)
(0.298785 -0.311777 0)
(0.377724 -0.389524 0)
(0.458359 -0.47761 0)
(0.538582 -0.570849 0)
(0.610691 -0.660233 0)
(0.665838 -0.736196 0)
(0.697894 -0.792199 0)
(0.705651 -0.826221 0)
(0.693956 -0.839509 0)
(0.666247 -0.834337 0)
(0.624248 -0.807965 0)
(0.568379 -0.759096 0)
(0.499788 -0.687406 0)
(0.420963 -0.594999 0)
(0.336218 -0.487957 0)
(0.251231 -0.374842 0)
(0.171607 -0.264608 0)
(0.101815 -0.1647 0)
(0.0444844 -0.0796617 0)
(0.000231938 -0.0111658 0)
(-0.0319021 0.0412718 0)
(-0.0536626 0.0794327 0)
(-0.0666326 0.104706 0)
(-0.0710965 0.119332 0)
(-0.0693618 0.124023 0)
(-0.0636524 0.121625 0)
(-0.0546934 0.11332 0)
(-0.0438434 0.100174 0)
(-0.0325515 0.0831388 0)
(-0.021627 0.0633004 0)
(-0.0101856 0.0395726 0)
(-0.000288449 0.00832819 0)
(0.190151 -0.228975 0)
(0.276637 -0.293706 0)
(0.363268 -0.369262 0)
(0.450182 -0.453651 0)
(0.534917 -0.543545 0)
(0.612623 -0.631674 0)
(0.674618 -0.708174 0)
(0.713476 -0.765943 0)
(0.726357 -0.802325 0)
(0.717455 -0.816587 0)
(0.68842 -0.808946 0)
(0.64252 -0.778762 0)
(0.580747 -0.724868 0)
(0.505202 -0.648006 0)
(0.419648 -0.551871 0)
(0.329456 -0.443347 0)
(0.240873 -0.331292 0)
(0.159566 -0.224127 0)
(0.0894808 -0.128132 0)
(0.0325191 -0.0466224 0)
(-0.0113011 0.0196178 0)
(-0.0426155 0.0707066 0)
(-0.0630589 0.106719 0)
(-0.0742755 0.13023 0)
(-0.0776664 0.141545 0)
(-0.07441 0.143692 0)
(-0.0663308 0.139712 0)
(-0.0558992 0.130259 0)
(-0.0433782 0.11688 0)
(-0.0296611 0.100392 0)
(-0.0157658 0.0813846 0)
(-0.00199039 0.0605696 0)
(0.0122374 0.0366795 0)
(0.0181981 0.00726947 0)
(0.244256 -0.269501 0)
(0.339231 -0.34283 0)
(0.433331 -0.425216 0)
(0.524265 -0.512079 0)
(0.607858 -0.598442 0)
(0.677042 -0.676121 0)
(0.723362 -0.736596 0)
(0.742918 -0.776121 0)
(0.742868 -0.792943 0)
(0.710427 -0.78563 0)
(0.662307 -0.753638 0)
(0.595923 -0.697659 0)
(0.514639 -0.618754 0)
(0.423299 -0.521802 0)
(0.328179 -0.414308 0)
(0.235914 -0.304974 0)
(0.152147 -0.201554 0)
(0.0805083 -0.109331 0)
(0.0224481 -0.030724 0)
(-0.0222382 0.0340397 0)
(-0.0539278 0.0843485 0)
(-0.0730038 0.120126 0)
(-0.0821657 0.141227 0)
(-0.0832435 0.15172 0)
(-0.078685 0.152255 0)
(-0.0699656 0.146607 0)
(-0.0582034 0.135684 0)
(-0.044657 0.122259 0)
(-0.0299367 0.107143 0)
(-0.0144905 0.0904531 0)
(0.00115705 0.0722236 0)
(0.017038 0.0526797 0)
(0.0331387 0.0306502 0)
(0.0347996 0.00675033 0)
(0.305156 -0.310372 0)
(0.407292 -0.390407 0)
(0.505612 -0.475953 0)
(0.595786 -0.560809 0)
(0.672623 -0.639082 0)
(0.728096 -0.703273 0)
(0.756964 -0.747328 0)
(0.762702 -0.768007 0)
(0.734502 -0.763351 0)
(0.684064 -0.731779 0)
(0.61499 -0.676447 0)
(0.529379 -0.598344 0)
(0.43328 -0.503056 0)
(0.333734 -0.398624 0)
(0.237713 -0.293567 0)
(0.150803 -0.195016 0)
(0.0764373 -0.107479 0)
(0.0158703 -0.0327852 0)
(-0.0312166 0.0293229 0)
(-0.0643045 0.0779591 0)
(-0.0840264 0.112319 0)
(-0.0914265 0.133568 0)
(-0.0898724 0.145683 0)
(-0.0841986 0.144441 0)
(-0.0733307 0.137103 0)
(-0.0604368 0.125627 0)
(-0.0467317 0.112679 0)
(-0.0323582 0.0996137 0)
(-0.0170149 0.0863996 0)
(-0.000664955 0.0723947 0)
(0.0162889 0.057169 0)
(0.0338335 0.0406143 0)
(0.0510313 0.0220217 0)
(0.0485321 0.00447442 0)
(0.371369 -0.349599 0)
(0.478087 -0.433535 0)
(0.576536 -0.518356 0)
(0.66137 -0.597465 0)
(0.727486 -0.664922 0)
(0.767711 -0.714276 0)
(0.780093 -0.740193 0)
(0.757327 -0.740869 0)
(0.709612 -0.712473 0)
(0.638437 -0.659586 0)
(0.550208 -0.584846 0)
(0.450466 -0.493229 0)
(0.347119 -0.393423 0)
(0.247516 -0.29391 0)
(0.15724 -0.201455 0)
(0.0795727 -0.120076 0)
(0.0156948 -0.0512351 0)
(-0.0346558 0.00530734 0)
(-0.0710894 0.0493502 0)
(-0.0923932 0.0804362 0)
(-0.101398 0.101532 0)
(-0.0997558 0.109904 0)
(-0.0910517 0.111812 0)
(-0.0774654 0.107122 0)
(-0.06338 0.0983093 0)
(-0.0498577 0.0879043 0)
(-0.0365785 0.0778164 0)
(-0.0226355 0.0686113 0)
(-0.00714272 0.0596632 0)
(0.0100607 0.0498969 0)
(0.0283449 0.0387088 0)
(0.0473961 0.0259145 0)
(0.0646478 0.0116315 0)
(0.0552136 4.75195e-05 0)
(0.440853 -0.385008 0)
(0.548912 -0.46974 0)
(0.64352 -0.550347 0)
(0.719088 -0.620823 0)
(0.77047 -0.67535 0)
(0.790708 -0.707496 0)
(0.779753 -0.715971 0)
(0.73692 -0.693938 0)
(0.667236 -0.645888 0)
(0.577303 -0.575965 0)
(0.475264 -0.489768 0)
(0.368828 -0.395585 0)
(0.266017 -0.302378 0)
(0.172594 -0.216838 0)
(0.0917885 -0.142897 0)
(0.024725 -0.0819066 0)
(-0.0288625 -0.0337841 0)
(-0.0688054 0.00174779 0)
(-0.0947341 0.0259488 0)
(-0.107508 0.0417407 0)
(-0.109012 0.0517931 0)
(-0.101148 0.0575985 0)
(-0.0876177 0.0591964 0)
(-0.0717857 0.0570954 0)
(-0.0564998 0.0523423 0)
(-0.0430017 0.046572 0)
(-0.0304828 0.0412687 0)
(-0.0170064 0.0367636 0)
(-0.00114568 0.032294 0)
(0.0171763 0.0267033 0)
(0.036944 0.0193668 0)
(0.0573001 0.0103831 0)
(0.0733873 0.00133835 0)
(0.0566787 -0.00472741 0)
(0.511313 -0.414593 0)
(0.616942 -0.497047 0)
(0.70342 -0.570529 0)
(0.765934 -0.6302 0)
(0.799474 -0.670749 0)
(0.803599 -0.686805 0)
(0.765563 -0.674482 0)
(0.699929 -0.633258 0)
(0.610883 -0.569867 0)
(0.507459 -0.490016 0)
(0.398851 -0.402232 0)
(0.293256 -0.315464 0)
(0.197075 -0.236955 0)
(0.113694 -0.170909 0)
(0.0442402 -0.118952 0)
(-0.0115666 -0.081075 0)
(-0.0543989 -0.0565958 0)
(-0.0851867 -0.0422241 0)
(-0.105252 -0.0327844 0)
(-0.114986 -0.0239201 0)
(-0.114544 -0.0144367 0)
(-0.104927 -0.00487851 0)
(-0.0890644 0.00326645 0)
(-0.0708922 0.00854305 0)
(-0.0541703 0.010576 0)
(-0.0404654 0.010336 0)
(-0.0283616 0.00938327 0)
(-0.0149229 0.00855925 0)
(0.00168448 0.00749538 0)
(0.0212739 0.00508488 0)
(0.0425042 0.000832677 0)
(0.0637667 -0.00459468 0)
(0.077385 -0.00797795 0)
(0.0525042 -0.00822999 0)
(0.580403 -0.436691 0)
(0.679986 -0.514081 0)
(0.755503 -0.578627 0)
(0.803269 -0.626123 0)
(0.817355 -0.652184 0)
(0.795272 -0.651029 0)
(0.735481 -0.619462 0)
(0.649891 -0.564238 0)
(0.546857 -0.491861 0)
(0.4367 -0.410759 0)
(0.328787 -0.330304 0)
(0.230104 -0.258187 0)
(0.144692 -0.199418 0)
(0.0738438 -0.156212 0)
(0.0171757 -0.128833 0)
(-0.0271076 -0.116048 0)
(-0.0620542 -0.112698 0)
(-0.0903563 -0.111031 0)
(-0.111582 -0.106004 0)
(-0.123473 -0.0963831 0)
(-0.124519 -0.0828261 0)
(-0.115018 -0.0666859 0)
(-0.0976772 -0.0500609 0)
(-0.0769799 -0.0355043 0)
(-0.0576262 -0.0250939 0)
(-0.0421189 -0.0192681 0)
(-0.0291836 -0.0165865 0)
(-0.0151522 -0.0150441 0)
(0.00241334 -0.0139313 0)
(0.0232175 -0.0141498 0)
(0.0456584 -0.0159736 0)
(0.0663951 -0.0178648 0)
(0.0746639 -0.0154905 0)
(0.0435692 -0.00776847 0)
(0.646112 -0.450231 0)
(0.736243 -0.520342 0)
(0.797288 -0.574853 0)
(0.826185 -0.610087 0)
(0.822728 -0.621159 0)
(0.773489 -0.602523 0)
(0.693427 -0.556804 0)
(0.5927 -0.493182 0)
(0.48201 -0.419242 0)
(0.371937 -0.344735 0)
(0.270756 -0.27807 0)
(0.183379 -0.225106 0)
(0.111689 -0.189019 0)
(0.0551679 -0.17048 0)
(0.0110025 -0.167647 0)
(-0.0261037 -0.174382 0)
(-0.0607328 -0.18091 0)
(-0.0925127 -0.18224 0)
(-0.118167 -0.17767 0)
(-0.134423 -0.167108 0)
(-0.139104 -0.150606 0)
(-0.131794 -0.128903 0)
(-0.114416 -0.103986 0)
(-0.0912239 -0.0792229 0)
(-0.0676871 -0.0585646 0)
(-0.0479678 -0.0447511 0)
(-0.0322799 -0.0375879 0)
(-0.0169364 -0.0341305 0)
(0.00161888 -0.0316749 0)
(0.0234959 -0.0301241 0)
(0.0463855 -0.0293594 0)
(0.0641532 -0.0269793 0)
(0.0673262 -0.0193415 0)
(0.033083 -0.00577578 0)
(0.706723 -0.454944 0)
(0.78469 -0.516379 0)
(0.830506 -0.560268 0)
(0.842677 -0.583364 0)
(0.811909 -0.579795 0)
(0.740725 -0.546096 0)
(0.644275 -0.492048 0)
(0.534286 -0.426134 0)
(0.422318 -0.357406 0)
(0.318204 -0.295187 0)
(0.22831 -0.246256 0)
(0.155434 -0.214796 0)
(0.099278 -0.202201 0)
(0.0562004 -0.206286 0)
(0.0191915 -0.220123 0)
(-0.0183149 -0.233705 0)
(-0.0569877 -0.241917 0)
(-0.0935331 -0.244845 0)
(-0.124393 -0.242212 0)
(-0.146248 -0.233021 0)
(-0.156501 -0.216384 0)
(-0.153844 -0.192076 0)
(-0.13888 -0.161275 0)
(-0.114625 -0.127185 0)
(-0.0863623 -0.0949073 0)
(-0.0598803 -0.0698013 0)
(-0.03837 -0.0547336 0)
(-0.0200513 -0.047827 0)
(-0.000436664 -0.044158 0)
(0.0217676 -0.0409002 0)
(0.0436465 -0.0371508 0)
(0.0585013 -0.0305673 0)
(0.0555107 -0.0189545 0)
(0.0231358 -0.0036471 0)
(0.760895 -0.451045 0)
(0.82449 -0.503629 0)
(0.852717 -0.537227 0)
(0.844685 -0.54776 0)
(0.789823 -0.529915 0)
(0.700654 -0.486941 0)
(0.592977 -0.429957 0)
(0.479709 -0.367476 0)
(0.372128 -0.30902 0)
(0.278556 -0.262512 0)
(0.203268 -0.233087 0)
(0.146536 -0.222979 0)
(0.104581 -0.230398 0)
(0.0692907 -0.248144 0)
(0.0321444 -0.26637 0)
(-0.00917839 -0.279744 0)
(-0.0517464 -0.288867 0)
(-0.0924778 -0.29422 0)
(-0.128422 -0.294899 0)
(-0.156448 -0.289259 0)
(-0.17369 -0.275655 0)
(-0.178057 -0.252816 0)
(-0.168693 -0.220603 0)
(-0.146644 -0.180885 0)
(-0.115626 -0.138311 0)
(-0.0816275 -0.099647 0)
(-0.0507805 -0.0713703 0)
(-0.025848 -0.0559775 0)
(-0.00404231 -0.0492573 0)
(0.0179642 -0.0443602 0)
(0.0379496 -0.038186 0)
(0.0490837 -0.0287838 0)
(0.0425484 -0.0153473 0)
(0.0151142 -0.00178792 0)
(0.808438 -0.439181 0)
(0.856778 -0.48265 0)
(0.86703 -0.506255 0)
(0.836071 -0.505692 0)
(0.760343 -0.476579 0)
(0.657487 -0.429434 0)
(0.544004 -0.374123 0)
(0.432848 -0.319523 0)
(0.334245 -0.274389 0)
(0.254543 -0.244977 0)
(0.19504 -0.23474 0)
(0.152962 -0.241848 0)
(0.119917 -0.260807 0)
(0.0853854 -0.281315 0)
(0.0447711 -0.29738 0)
(0.000267211 -0.309557 0)
(-0.044908 -0.319432 0)
(-0.0886914 -0.326976 0)
(-0.128865 -0.331314 0)
(-0.162726 -0.330586 0)
(-0.18743 -0.322522 0)
(-0.200325 -0.304901 0)
(-0.199401 -0.276369 0)
(-0.183723 -0.236919 0)
(-0.154501 -0.189104 0)
(-0.115998 -0.138993 0)
(-0.0749864 -0.0946395 0)
(-0.0387367 -0.0636042 0)
(-0.0104661 -0.0477333 0)
(0.0123569 -0.0401493 0)
(0.0304806 -0.0325484 0)
(0.0388075 -0.0224259 0)
(0.0312724 -0.0101019 0)
(0.009679 -0.000424059 0)
(0.848135 -0.420779 0)
(0.879704 -0.455613 0)
(0.874957 -0.469995 0)
(0.81887 -0.458973 0)
(0.726627 -0.423589 0)
(0.614994 -0.376476 0)
(0.500688 -0.326511 0)
(0.395994 -0.282462 0)
(0.309515 -0.251567 0)
(0.24503 -0.238962 0)
(0.200605 -0.243666 0)
(0.168309 -0.261805 0)
(0.137242 -0.283072 0)
(0.099579 -0.300371 0)
(0.0558348 -0.31327 0)
(0.00954843 -0.324206 0)
(-0.0370748 -0.334089 0)
(-0.0825876 -0.342788 0)
(-0.125476 -0.349323 0)
(-0.163873 -0.353656 0)