/*--------------------------------*- C++ -*----------------------------------*\
| =========                 |                                                 |
| \\      /  F ield         | OpenFOAM: The Open Source CFD Toolbox           |
|  \\    /   O peration     | Version:  v2012                                 |
|   \\  /    A nd           | Website:  www.openfoam.com                      |
|    \\/     M anipulation  |                                                 |
\*---------------------------------------------------------------------------*/
FoamFile
{
    version     2.0;
    format      ascii;
    class       volScalarField;
    location    "503";
    object      age;
}
// * * * * * * * * * * * * * * * * * * * * * * * * * * * * * * * * * * * * * //

dimensions      [0 0 1 0 0 0 0];


internalField   nonuniform List<scalar> 
6556
(
0.0125016
0.0124997
0.0124998
0.0124998
0.0124999
0.0124999
0.0124998
0.0124998
0.0124997
0.0125016
0.0375086
0.0374976
0.0374977
0.037498
0.0374982
0.0374982
0.037498
0.0374977
0.0374976
0.0375086
0.0625254
0.0624947
0.062493
0.0624933
0.0624936
0.0624936
0.0624933
0.062493
0.0624947
0.0625254
0.0875525
0.0874918
0.0874856
0.087485
0.0874852
0.0874852
0.087485
0.0874855
0.0874918
0.0875525
0.11259
0.112489
0.112476
0.112473
0.112473
0.112473
0.112473
0.112475
0.112489
0.11259
0.137637
0.137487
0.137463
0.137457
0.137456
0.137456
0.137457
0.137463
0.137487
0.137637
0.162693
0.162486
0.162449
0.162438
0.162435
0.162435
0.162438
0.162448
0.162486
0.162693
0.187758
0.187485
0.187432
0.187416
0.187411
0.187411
0.187416
0.187432
0.187485
0.187757
0.212831
0.212485
0.212413
0.21239
0.212382
0.212382
0.21239
0.212413
0.212485
0.21283
0.237912
0.237486
0.237393
0.237362
0.237351
0.237351
0.237361
0.237392
0.237485
0.237911
0.263001
0.262487
0.262371
0.26233
0.262316
0.262315
0.26233
0.26237
0.262486
0.262999
0.288097
0.287489
0.287347
0.287296
0.287278
0.287277
0.287295
0.287346
0.287487
0.288094
0.3132
0.312491
0.312322
0.31226
0.312237
0.312236
0.312258
0.31232
0.312488
0.313197
0.33831
0.337494
0.337296
0.337221
0.337193
0.337192
0.337219
0.337292
0.337489
0.338304
0.363428
0.362497
0.362268
0.36218
0.362146
0.362145
0.362176
0.362262
0.36249
0.363423
0.388553
0.387502
0.387239
0.387137
0.387097
0.387095
0.387131
0.38723
0.387491
0.388526
0.413686
0.412508
0.412209
0.412092
0.412045
0.412041
0.412083
0.412196
0.412491
0.413728
0.438827
0.437516
0.437179
0.437045
0.43699
0.436985
0.437031
0.437158
0.43749
0.438539
0.463978
0.462527
0.462149
0.461997
0.461932
0.461924
0.461974
0.462115
0.462489
0.465044
0.489141
0.487542
0.487121
0.486948
0.486873
0.486859
0.486909
0.487064
0.487473
0.484406
0.514317
0.512564
0.512097
0.511901
0.511812
0.51179
0.511837
0.511999
0.512449
0.534158
0.539511
0.537596
0.537079
0.536858
0.536752
0.536719
0.53676
0.536929
0.53743
0.568017
0.564727
0.562643
0.562072
0.561824
0.561698
0.561652
0.561687
0.561871
0.562419
0.601247
0.589971
0.58771
0.587081
0.586803
0.586657
0.586595
0.586627
0.58684
0.587434
0.633852
0.615251
0.612805
0.612114
0.611804
0.611634
0.611557
0.611588
0.611851
0.612499
0.665842
0.640577
0.637937
0.637179
0.636834
0.63664
0.636547
0.636585
0.636922
0.637628
0.697059
0.665959
0.663116
0.662285
0.661903
0.661683
0.661576
0.661628
0.662069
0.662837
0.727436
0.691409
0.688354
0.687444
0.687023
0.686776
0.686657
0.686732
0.687308
0.688139
0.756812
0.716944
0.713666
0.712671
0.712208
0.711932
0.711803
0.711911
0.712655
0.713535
0.784997
0.74258
0.73907
0.737981
0.737473
0.737168
0.737031
0.737183
0.738133
0.739036
0.81192
0.768339
0.764585
0.763393
0.762837
0.762502
0.76236
0.762569
0.763759
0.764664
0.837595
0.794246
0.790236
0.788929
0.788323
0.787956
0.787813
0.788087
0.789553
0.790441
0.862054
0.820329
0.816051
0.814616
0.813955
0.813556
0.813413
0.813762
0.815533
0.816393
0.885399
0.846623
0.842064
0.840485
0.839763
0.83933
0.839188
0.839615
0.841716
0.842543
0.907767
0.87317
0.868313
0.866573
0.865784
0.865313
0.865172
0.865676
0.868117
0.868915
0.929319
0.900016
0.894846
0.892922
0.892058
0.891546
0.8914
0.891973
0.894751
0.895536
0.950248
0.927221
0.92172
0.919586
0.918636
0.918076
0.91792
0.918544
0.921637
0.92244
0.970814
0.954853
0.949001
0.946627
0.945577
0.944961
0.944785
0.945435
0.948799
0.949668
0.991339
0.982997
0.97677
0.974121
0.972952
0.972272
0.972062
0.972704
0.976274
0.977275
1.01218
1.01175
1.00512
1.00216
1.00085
1.00009
0.999833
1.00042
1.00411
1.00533
1.0337
1.04124
1.03418
1.03085
1.02937
1.02852
1.0282
1.02869
1.03238
1.03389
1.05625
1.07161
1.06408
1.06033
1.05864
1.05769
1.05728
1.05763
1.06119
1.06311
1.07878
1.10305
1.09499
1.09075
1.08881
1.08773
1.08722
1.0874
1.09067
1.09316
1.10157
1.13578
1.12713
1.12232
1.12007
1.11883
1.1182
1.11817
1.121
1.12428
1.1248
1.17008
1.16075
1.15529
1.15264
1.1512
1.15042
1.15019
1.1524
1.15675
1.14812
1.20633
1.19619
1.18994
1.18681
1.1851
1.18416
1.18371
1.18513
1.19092
1.17412
1.24499
1.23386
1.22667
1.22291
1.22085
1.21969
1.21907
1.21958
1.22614
1.21212
1.28672
1.27433
1.26597
1.2614
1.25887
1.25742
1.25663
1.25629
1.26229
1.25553
1.33243
1.31837
1.3085
1.30287
1.29967
1.2978
1.29682
1.29587
1.30013
1.29987
1.38347
1.36707
1.35517
1.34809
1.34395
1.34147
1.34016
1.3389
1.341
1.34391
1.44196
1.42209
1.40727
1.39815
1.39264
1.38925
1.38738
1.38594
1.38629
1.38923
1.51168
1.48621
1.46685
1.45462
1.44705
1.44229
1.4395
1.43774
1.43703
1.43859
1.59949
1.56399
1.53709
1.51995
1.50914
1.50222
1.49792
1.4954
1.49404
1.49427
1.72542
1.66673
1.62399
1.59796
1.582
1.57181
1.56523
1.56118
1.5589
1.55813
1.92723
1.81715
1.74178
1.69631
1.66949
1.65328
1.64321
1.63703
1.6335
1.63191
2.56401
2.10247
1.91609
1.83772
1.79067
1.76173
1.74316
1.73117
1.72379
1.71977
12.121
6.35602
3.05307
2.08637
1.93225
1.88576
1.86283
1.84904
1.83986
1.83388
12.3325
11.5107
7.4529
4.13567
2.60915
2.13925
2.02863
1.98983
1.97108
1.96248
11.387
11.6909
10.8356
7.85831
5.25825
3.6677
2.86152
2.4678
2.31505
2.24778
10.9145
9.96792
9.52479
8.5453
7.15902
6.06081
5.28934
4.69942
4.2675
3.96683
134.407
157.811
157.742
158.114
158.749
159.755
161.29
163.467
166.887
170.464
174.398
178.564
182.241
185.102
187.077
188.199
188.442
188.598
188.752
188.909
189.074
189.259
189.487
189.81
191.747
132.591
156.013
154.352
154.376
154.449
154.925
156.458
160.107
168.745
180.035
192.919
206.518
219.754
231.587
241.082
247.489
250.417
248.698
242.203
231.693
218.835
206.152
196.484
191.503
191.395
126.67
155.172
154.055
153.889
153.793
153.895
154.583
157.204
168.324
186.966
209.937
235.713
262.578
288.164
309.791
325.039
332.101
330.186
319.159
299.5
272.812
242.752
215.589
197.554
191.733
119.861
154.999
154.277
154.022
153.653
153.564
153.797
155.009
165.523
189.53
222.16
261.136
304.502
348.037
386.106
413.52
426.622
423.848
405.698
374.275
332.696
285.338
239.884
206.566
192.637
112.487
155.278
155.263
155.012
154.022
153.464
153.401
153.779
161.294
187.31
227.535
278.866
339.591
403.242
460.035
501.411
521.693
518.307
492.139
447.253
389.634
325.63
263.605
215.903
193.718
104.141
155.772
157.215
157.435
155.601
153.82
153.265
153.377
157.116
180.717
224.953
285.51
361.256
443.837
518.736
574.02
602.114
599.136
566.332
509.452
437.267
358.753
283.172
223.77
194.655
95.3617
155.382
159.872
161.418
158.936
155.355
153.35
153.04
154.099
171.392
215.076
279.968
365.371
462.205
552.029
619.61
655.859
655.095
618.246
553.2
470.728
381.874
296.87
229.387
195.335
86.365
153.759
162.644
166.528
164.137
158.714
154.306
152.962
152.891
162.338
199.877
263.123
351.309
455.163
554.885
631.654
674.853
676.812
642.303
574.065
487.263
393.708
304.143
232.529
195.741
77.1991
150.769
164.879
171.933
170.732
164.019
156.847
153.208
152.67
155.797
182.552
238.136
321.27
424.869
528.253
609.776
657.406
666.135
635.683
570.97
486.606
394.318
305.163
233.258
195.939
67.9799
146.183
166.381
176.87
178.036
171.119
161.58
154.608
152.609
152.508
166.813
209.841
280.905
376.257
477.262
560.306
611.449
625.836
601.886
546.522
470.448
384.746
300.545
231.777
196.128
58.8846
139.963
167.353
180.82
185.314
179.499
168.594
158.235
153.002
152.329
156.675
183.407
237.308
317.304
409.673
490.792
543.03
562.329
548.678
505.662
441.824
366.799
291.247
228.49
196.318
50.065
131.573
167.2
183.495
192.01
188.571
177.703
164.977
155.502
152.342
152.206
163.593
197.774
257.038
334.376
410.531
464.327
488.141
483.943
454.057
404.381
342.66
278.424
223.948
196.511
41.6689
121.588
165.38
185.045
197.641
197.838
188.482
174.67
161.613
153.839
152.038
153.965
168.672
204.741
260.946
326.194
380.718
410.213
414.389
397.075
361.901
314.795
263.641
219.097
196.715
33.8163
110.345
161.563
185.549
202.363
206.832
200.555
187.565
172.465
159.714
153.105
151.947
154.546
168.522
200.448
247.197
296.523
331.967
345.367
339.213
317.855
285.412
248.049
214.34
196.924
26.6089
98.1722
155.541
184.786
205.175
215.117
213.1
202.783
187.898
172.247
159.519
153.094
151.866
153.439
162.874
186.156
220.602
254.894
278.19
283.756
274.982
256.794
233.634
211.73
198.204
20.0772
85.028
147.109
182.479
206.488
222.042
225.355
219.267
206.895
191.222
175.137
161.638
153.879
151.403
151.417
155.105
167.466
188.529
212.158
229.825
236.525
233.035
225.02
214.621
203.221
14.57
71.0168
135.999
178.091
205.928
227.036
236.367
235.577
227.526
214.605
198.963
182.623
167.785
157.15
151.292
149.419
149.361
152.059
159.68
170.096
179.771
184.849
181.619
170.976
156.852
10.3032
56.6965
121.997
170.845
203.167
229.158
244.958
250.266
247.593
239.212
226.923
212.224
196.447
180.929
167.18
157.01
150.251
146.369
144.852
144.748
144.686
144.619
144.485
143.113
141.38
7.14878
42.8002
105.151
159.824
197.567
227.647
250.014
261.882
265.314
262.337
254.692
243.749
230.654
216.396
201.885
188.003
175.607
165.331
157.613
152.742
149.933
148.61
148.533
150.035
155.061
4.90678
30.1255
85.942
144.144
188.03
222.04
249.973
268.895
279.047
282.166
279.867
273.529
264.23
252.944
240.527
227.749
215.298
203.806
193.863
186.012
180.708
178.24
178.894
183.245
191.59
3.38409
19.4031
65.6359
123.548
173.13
211.644
243.758
269.205
286.504
296.423
300.229
299.174
294.491
287.076
277.806
267.566
257.077
247.075
238.129
230.719
225.334
222.458
222.48
225.774
232.251
2.40728
11.2113
45.1768
98.4741
151.594
195.201
230.977
261.093
284.934
301.988
312.552
317.555
318.044
315.021
309.312
301.959
293.442
284.665
276.556
269.9
265.015
262.029
261.146
262.567
266.332
1.81301
6.25926
27.3168
70.9576
123.135
170.977
210.856
244.374
272.647
295.559
312.788
325.3
332.541
333.077
331.763
328.071
322.836
316.17
308.315
300.736
294.96
291.23
289.496
289.543
291.165
1.48
3.6351
14.2487
44.8502
90.0036
138.264
181.787
218.743
250.046
276.554
298.372
316.05
328.66
336.132
340.406
338.291
336.225
334.363
331.645
326.305
319.527
313.356
308.459
305.508
304.957
1.31652
2.31986
6.49922
23.4346
56.665
99.3254
143.095
182.827
217.048
246.133
270.658
291.21
307.791
320.293
329.335
334.045
335.283
335.884
335.691
334.045
331.638
329.403
327.861
326.911
326.013
1.25097
1.67119
3.21776
9.97445
29.31
60.476
98.2764
136.944
172.697
204.031
230.788
253.347
272.133
287.401
299.232
308.133
313.891
316.866
317.828
317.348
315.949
314.116
312.242
310.636
309.561
1.241
1.38694
1.9756
3.77716
11.541
29.2235
55.573
87.0259
119.684
150.693
178.532
202.677
223.166
240.248
254.057
264.837
272.835
278.326
281.716
283.463
284.005
283.732
282.965
281.972
280.977
1.2577
1.30454
1.47661
1.94934
3.68944
10.2411
23.865
43.7596
67.7248
93.2555
118.292
141.484
162.135
179.995
195.001
207.202
216.805
224.086
229.358
232.949
235.188
236.382
236.809
236.71
236.267
1.29548
1.30545
1.33591
1.45316
1.59707
2.53312
6.38142
14.7754
27.8268
44.0706
61.9375
80.0575
97.4088
113.329
127.418
139.473
149.478
157.544
163.851
168.615
172.066
174.43
175.922
176.734
177.036
1.34225
1.34144
1.34401
1.36287
1.40955
1.53068
1.64559
2.72771
6.04077
12.048
20.8985
31.4053
42.5878
53.7167
64.2473
73.8031
82.1797
89.3071
95.2063
99.9552
103.667
106.472
108.507
109.903
110.774
1.39107
1.39123
1.38765
1.38403
1.39203
1.42166
1.46504
1.55096
1.63955
1.7145
2.84165
5.16703
8.60867
12.962
17.9517
23.2788
28.3851
33.0312
37.1102
40.5836
43.459
45.7744
47.5829
48.9471
49.9251
1.44146
1.44422
1.44481
1.44204
1.4391
1.44065
1.45055
1.47482
1.51137
1.54975
1.61149
1.66176
1.71168
1.76207
1.88805
2.34971
3.05142
3.89716
4.80308
5.70109
6.54186
7.29355
7.93812
8.46902
8.88923
1.49632
1.49971
1.50346
1.50599
1.50678
1.50544
1.50596
1.5086
1.52134
1.53549
1.55825
1.58613
1.61622
1.64603
1.68178
1.72085
1.7538
1.78499
1.81581
1.84636
1.87663
1.90662
1.93633
1.96574
1.9949
1.55896
1.56144
1.56545
1.57035
1.57541
1.57944
1.58285
1.58582
1.58874
1.59487
1.60366
1.61504
1.63274
1.64977
1.66849
1.69045
1.7143
1.73877
1.7635
1.78837
1.81331
1.83829
1.86328
1.88829
1.91329
1.63192
1.63343
1.63649
1.64109
1.647
1.65377
1.66089
1.6682
1.67511
1.68238
1.69033
1.69927
1.70918
1.72096
1.73432
1.74904
1.76515
1.78252
1.80096
1.82019
1.8405
1.8619
1.88354
1.90487
1.92617
1.71825
1.71868
1.72075
1.72437
1.72951
1.73606
1.74384
1.75266
1.76224
1.77241
1.78309
1.79435
1.80609
1.8185
1.83171
1.84572
1.86052
1.87612
1.89247
1.90955
1.92726
1.94553
1.96434
1.98364
2.00337
1.83052
1.82932
1.82993
1.8322
1.83599
1.84125
1.84788
1.85581
1.86495
1.87517
1.88633
1.89836
1.91115
1.92463
1.93877
1.95354
1.96889
1.98482
2.00127
2.01823
2.03566
2.05351
2.07175
2.09035
2.10928
1.95937
1.95936
1.96132
1.96478
1.96949
1.97536
1.98231
1.99031
1.99933
2.00932
2.02024
2.03204
2.04465
2.05803
2.07211
2.08683
2.10214
2.11799
2.13434
2.15114
2.16835
2.18593
2.20384
2.22205
2.24053
2.21363
2.19474
2.18427
2.17926
2.17807
2.17969
2.18353
2.18917
2.19633
2.20482
2.21449
2.22521
2.23689
2.24944
2.26279
2.27685
2.29156
2.30687
2.32271
2.33903
2.35579
2.37293
2.39043
2.40821
2.42635
3.76849
3.63629
3.54295
3.47415
3.42212
3.38238
3.35208
3.32926
3.31253
3.30084
3.29336
3.28949
3.2887
3.29055
3.29469
3.30085
3.30877
3.31825
3.3291
3.34115
3.35427
3.36831
3.38317
3.39874
3.41503
197.438
197.722
136.215
178.661
152.121
134.246
143.383
136.521
140.866
141.34
148.584
163.231
164.217
179.233
196.159
202.771
216.198
230.869
240.832
250.635
261.693
271.771
278.354
286.157
294.202
298.312
303.504
306.255
308.58
311.909
323.929
321.463
319.802
309.148
309.412
310.147
280.18
279.673
279.457
235.694
235.123
234.593
177.007
176.773
176.409
111.23
111.399
111.386
50.5636
50.9447
51.1591
9.18396
9.39232
9.53951
2.02033
2.04547
2.07044
1.93674
1.95866
1.98056
1.94658
1.9661
1.98542
2.02221
2.04006
2.05812
2.12729
2.14433
2.16154
2.25808
2.27464
2.29135
2.44312
2.45927
2.47554
3.42973
3.44469
3.45986
157.033
136.546
128.233
127.443
127.083
126.895
126.748
126.619
126.503
126.399
126.303
126.214
126.13
126.051
125.976
125.904
125.835
125.768
125.703
125.639
125.578
125.518
125.459
125.401
125.344
125.288
125.232
125.178
125.124
125.07
125.017
124.965
124.913
124.861
124.81
124.758
124.707
124.656
124.605
124.554
124.502
124.44
124.368
124.286
124.191
124.084
123.965
123.832
123.686
123.527
123.355
123.172
122.979
122.779
122.577
122.378
122.193
122.032
121.912
121.823
121.723
121.608
121.469
121.329
121.3
121.399
121.697
122.414
123.23
124.257
125.423
126.846
128.071
128.786
128.985
129.139
129.292
129.46
129.655
130.577
139.556
130.781
127.949
127.612
127.579
127.807
128.255
128.938
129.839
130.923
132.12
133.378
134.666
135.961
137.245
138.507
139.736
140.927
142.076
143.179
144.235
145.244
146.204
147.117
147.982
148.799
149.568
150.29
150.963
151.588
152.163
152.688
153.161
153.58
153.942
154.245
154.486
154.661
154.765
154.794
154.747
154.621
154.402
154.084
153.659
153.118
152.454
151.657
150.718
149.627
148.376
146.956
145.36
143.582
141.62
139.478
137.165
134.713
132.198
129.719
127.327
125.131
123.246
121.731
120.809
120.531
120.345
120.953
122.754
125.818
130.175
135.399
140.52
144.425
145.92
144.113
139.7
134.724
131.331
130.691
133.602
128.707
128.076
128.338
129.391
131.239
133.863
137.117
140.795
144.699
148.683
152.68
156.625
160.47
164.186
167.753
171.162
174.409
177.494
180.42
183.19
185.812
188.289
190.628
192.834
194.911
196.864
198.696
200.409
202.005
203.484
204.847
206.09
207.213
208.21
209.078
209.811
210.4
210.838
211.115
211.22
211.145
210.881
210.407
209.708
208.764
207.556
206.062
204.26
202.124
199.631
196.756
193.473
189.76
185.597
180.97
175.875
170.321
164.336
157.979
151.348
144.594
137.941
131.704
126.342
122.629
120.481
119.968
121.164
125.008
131.894
141.456
152.074
161.326
167.184
165.62
157.058
144.958
135.051
131.157
131.457
128.58
128.694
130.332
133.46
138.06
143.857
150.455
157.493
164.701
171.895
178.95
185.778
192.326
198.566
204.485
210.086
215.374
220.362
225.064
229.494
233.668
237.6
241.305
244.793
248.077
251.165
254.065
256.783
259.324
261.69
263.882
265.9
267.741
269.401
270.873
272.15
273.222
274.077
274.702
275.08
275.194
275.026
274.555
273.754
272.594
271.046
269.075
266.646
263.72
260.254
256.206
251.53
246.182
240.118
233.298
225.693
217.285
208.081
198.118
187.484
176.329
164.892
153.523
142.705
133.088
125.55
121.181
119.766
121.909
128.655
140.209
155.152
170.49
182.534
181.068
170.765
154.09
138.755
131.691
130.735
128.726
130.013
133.625
139.542
147.465
156.791
166.922
177.397
187.89
198.178
208.115
217.617
226.641
235.173
243.219
250.793
257.917
264.618
270.92
276.85
282.432
287.691
292.646
297.316
301.718
305.865
309.77
313.441
316.885
320.107
323.108
325.89
328.448
330.779
332.876
334.728
336.323
337.647
338.682
339.409
339.805
339.845
339.505
338.754
337.556
335.875
333.666
330.886
327.483
323.404
318.59
312.98
306.51
299.112
290.721
281.276
270.721
259.022
246.17
232.202
217.221
201.426
185.142
168.86
153.284
139.379
128.381
121.792
119.625
122.859
132.659
148.474
167.043
182.741
189.577
177.72
159.139
141.114
132.089
130.424
129.095
131.936
137.979
147.074
158.51
171.381
184.939
198.652
212.158
225.224
237.718
249.573
260.769
271.31
281.219
290.528
299.271
307.488
315.213
322.484
329.333
335.79
341.882
347.634
353.066
358.197
363.041
367.611
371.914
375.958
379.744
383.274
386.545
389.551
392.284
394.731
396.88
398.711
400.204
401.335
402.077
402.4
402.27
401.655
400.516
398.809
396.488
393.502
389.796
385.311
379.985
373.749
366.53
358.252
348.834
338.192
326.243
312.911
298.135
281.882
264.173
245.107
224.908
203.976
182.961
162.824
144.87
130.714
122.191
119.471
123.648
135.849
153.913
171.832
181.242
176.642
159.813
141.903
132.316
130.322
129.761
134.324
143.098
155.527
170.45
186.705
203.437
220.069
236.236
251.728
266.439
280.332
293.409
305.696
317.233
328.066
338.246
347.819
356.835
365.337
373.365
380.957
388.145
394.958
401.422
407.556
413.379
418.903
424.138
429.091
433.764
438.155
442.259
446.069
449.572
452.751
455.587
458.056
460.131
461.779
462.966
463.654
463.801
463.362
462.299
460.561
458.099
454.86
450.791
445.838
439.942
433.044
425.082
415.986
405.683
394.092
381.125
366.689
350.689
333.039
313.676
292.589
269.859
245.712
220.607
195.327
171.065
149.441
132.469
122.332
119.246
124.048
137.422
155.069
168.358
169.145
156.975
141.456
132.512
130.358
130.556
137.073
148.749
164.522
182.786
202.174
221.759
240.957
259.43
277.009
293.624
309.269
323.972
337.782
350.757
362.961
374.456
385.305
395.564
405.287
414.521
423.309
431.688
439.691
447.344
454.67
461.686
468.404
474.832
480.974
486.829
492.39
497.646
502.582
507.177
511.405
515.237
518.634
521.557
523.961
525.794
527.006
527.538
527.335
526.337
524.491
521.743
518.04
513.333
507.578
500.736
492.77
483.646
473.33
461.782
448.958
434.798
419.228
402.155
383.474
363.072
340.853
316.763
290.847
263.314
234.645
205.715
177.873
153.04
133.633
122.181
118.888
123.894
137.268
152.212
158.437
152.215
140.29
132.706
130.491
131.43
140.134
154.803
173.844
195.236
217.455
239.547
260.956
281.396
300.745
318.977
336.122
352.236
367.393
381.676
395.165
407.94
420.075
431.638
442.691
453.286
463.472
473.287
482.766
491.934
500.814
509.418
517.757
525.832
533.642
541.178
548.423
555.356
561.95
568.169
573.97
579.305
584.117
588.341
591.908
594.741
596.761
597.887
598.037
597.129
595.093
591.863
587.385
581.617
574.53
566.114
556.37
545.314
532.97
519.366
504.524
488.455
471.145
452.549
432.585
411.134
388.052
363.194
336.453
307.824
277.484
245.911
213.983
183.18
155.676
134.22
121.744
118.307
123.35
136.224
147.552
146.912
138.984
132.909
130.635
132.369
143.521
161.24
183.427
207.689
232.408
256.647
279.914
301.988
322.808
342.393
360.813
378.16
394.538
410.053
424.807
438.898
452.411
465.425
478.008
490.218
502.104
513.708
525.062
536.189
547.108
557.828
568.351
578.671
588.778
598.649
608.257
617.563
626.522
635.078
643.162
650.698
657.597
663.761
669.078
673.433
676.703
678.765
679.498
678.786
676.526
672.633
667.046
659.728
650.676
639.913
627.498
613.514
598.071
581.291
563.299
544.211
524.115
503.057
481.026
457.945
433.671
408.011
380.753
351.72
320.844
288.255
254.385
220.135
187.037
157.418
134.318
121.031
117.485
122.676
135.192
142.802
137.65
133.126
130.763
133.539
147.358
168.176
193.348
220.179
247.031
273.04
297.802
321.179
343.174
363.86
383.352
401.781
419.282
435.988
452.023
467.498
482.514
497.157
511.501
525.606
539.525
553.297
566.953
580.514
593.992
607.391
620.704
633.918
647.007
659.938
672.664
685.128
697.26
708.975
720.176
730.745
740.552
749.446
757.261
763.82
768.936
772.422
774.099
773.797
771.369
766.692
759.693
750.344
738.669
724.744
708.701
690.717
671.011
649.827
627.421
604.042
579.909
555.193
529.991
504.314
478.069
451.067
423.037
393.683
362.742
330.08
295.774
260.227
224.307
189.569
158.388
134.019
120.083
116.451
122.122
134.536
137.199
133.363
130.875
135.029
151.858
175.865
203.818
232.855
261.424
288.787
314.659
338.994
361.865
383.403
403.769
423.133
441.663
459.516
476.834
493.744
510.357
526.766
543.049
559.271
575.485
591.73
608.035
624.419
640.891
657.446
674.074
690.748
707.434
724.083
740.629
756.995
773.083
788.777
803.939
818.408
831.998
844.494
855.654
865.214
872.899
878.431
881.543
881.989
879.561
874.076
865.442
853.639
838.732
820.876
800.3
777.306
752.252
725.53
697.551
668.713
639.383
609.866
580.385
551.059
521.883
492.719
463.303
433.267
402.213
369.79
335.809
300.319
263.702
226.788
191.037
158.837
133.498
118.926
115.166
122.347
135.1
133.574
130.972
137.304
157.594
184.803
215.223
245.983
275.758
303.999
330.555
355.476
378.907
401.035
422.064
442.198
461.631
480.54
499.084
517.4
535.606
553.801
572.069
590.478
609.082
627.921
647.025
666.412
686.089
706.049
726.276
746.738
767.39
788.173
809.008
829.794
850.41
870.707
890.509
909.608
927.756
944.664
959.995
973.373
984.401
992.677
997.81
999.443
997.282
991.062
980.679
966.137
947.546
925.166
899.367
870.606
839.412
806.351
771.999
736.914
701.607
666.515
631.977
598.213
565.31
533.21
501.698
470.416
438.894
406.63
373.202
338.389
302.254
265.187
227.966
191.939
159.272
133.201
117.65
113.34
121.503
133.973
131.167
140.496
165.165
195.623
228.025
259.867
290.219
318.78
345.542
370.647
394.298
416.729
438.177
458.869
479.018
498.813
518.42
537.985
557.629
577.458
597.556
617.995
638.832
660.11
681.862
704.105
726.849
750.088
773.804
797.964
822.522
847.41
872.544
897.811
923.072
948.155
972.851
996.911
1020.03
1041.86
1061.94
1079.77
1094.79
1106.44
1114.15
1117.4
1115.78
1108.94
1096.73
1079.34
1056.99
1029.95
998.751
964.041
926.542
887.004
846.17
804.745
763.367
722.586
682.836
644.418
607.491
572.066
537.997
504.978
472.561
440.187
407.28
373.379
338.272
302.079
265.248
228.537
193.11
160.792
134.287
117.093
111.021
111.49
132.637
148.103
176.847
209.525
242.788
274.757
304.912
333.16
359.609
384.463
407.969
430.384
451.963
472.942
493.538
513.944
534.327
554.832
575.583
596.684
618.224
640.273
662.892
686.126
710.01
734.564
759.8
785.714
812.291
839.5
867.296
895.615
924.37
953.448
982.701
1011.95
1040.97
1069.49
1097.2
1123.68
1148.4
1170.73
1189.87
1204.96
1215.26
1220.22
1219.43
1212.57
1199.13
1178.85
1153.35
1122.39
1086.59
1046.79
1003.89
958.823
912.474
865.661
819.115
773.463
729.208
686.712
646.188
607.695
571.142
536.291
502.756
470.022
437.484
404.545
370.758
335.972
300.412
264.637
229.451
195.886
165.321
139.596
120.827
110.437
139.648
163.423
194.327
227.164
259.651
290.572
319.68
346.977
372.599
396.771
419.752
441.807
463.185
484.118
504.812
525.453
546.199
567.19
588.544
610.363
632.732
655.72
679.387
703.777
728.925
754.852
781.569
809.073
837.35
866.369
896.087
926.442
957.351
988.703
1020.36
1052.14
1083.85
1115.26
1146.09
1175.96
1204.27
1229.87
1250.08
1264.08
1272.83
1277.12
1277.46
1273.9
1264.88
1245.35
1218.6
1185.68
1147.46
1104.88
1058.94
1010.69
961.143
911.171
861.552
812.946
765.893
720.8
677.921
637.357
599.069
562.876
528.466
495.405
463.158
431.133
398.779
365.732
331.961
297.825
264.023
231.493
201.331
174.768
153.088
137.422
157.867
185.999
216.445
247.525
277.822
306.68
334
359.795
384.156
407.262
429.36
450.702
471.522
492.029
512.41
532.832
553.439
574.356
595.691
617.535
639.966
663.047
686.831
711.358
736.657
762.745
789.627
817.293
845.722
874.882
904.727
935.194
966.202
997.64
1029.37
1061.22
1093
1124.48
1155.41
1185.42
1213.97
1240.38
1260.09
1272.33
1280.11
1283.96
1286.58
1285.79
1278.43
1261.17
1235.89
1204.02
1166.69
1124.87
1079.55
1031.76
982.533
932.748
883.181
834.495
787.237
741.834
698.58
657.618
618.962
582.497
547.984
515.08
483.347
452.28
421.362
390.16
358.462
326.391
294.421
263.302
233.934
207.28
184.323
165.975
185.615
212.979
240.823
268.8
296.014
322.147
347.145
370.999
393.745
415.479
436.383
456.684
476.592
496.286
515.925
535.645
555.566
575.793
596.422
617.53
639.181
661.428
684.313
707.867
732.108
757.045
782.673
808.972
835.91
863.446
891.529
920.095
949.057
978.302
1007.69
1037.05
1066.18
1094.85
1122.79
1149.65
1174.96
1198.33
1218.3
1233.5
1244.31
1250.5
1251.95
1247.87
1237.7
1221.29
1198.82
1170.7
1137.53
1100.08
1059.2
1015.8
970.742
924.836
878.802
833.269
788.772
745.739
704.485
665.195
627.934
592.656
559.203
527.322
496.679
466.876
437.49
408.128
378.527
348.668
318.836
289.589
261.681
235.932
213.101
193.792
217.391
241.058
265.118
289.284
312.985
336.042
358.384
379.971
400.799
420.893
440.35
459.332
478.004
496.51
514.978
533.518
552.222
571.172
590.444
610.1
630.187
650.746
671.804
693.381
715.484
738.111
761.245
784.861
808.916
833.364
858.146
883.195
908.423
933.717
958.942
983.938
1008.52
1032.47
1055.53
1077.4
1097.72
1116.08
1132.04
1145
1154.4
1159.78
1160.71
1156.94
1148.29
1134.69
1116.26
1093.25
1066.06
1035.21
1001.3
964.973
926.887
887.678
847.944
808.237
769.038
730.75
693.68
658.038
623.927
591.352
560.23
530.395
501.61
473.582
445.992
418.532
390.976
363.252
335.526
308.177
281.779
257.012
234.515
214.723
248.146
267.393
287.327
307.524
327.623
347.484
367.007
386.127
404.808
423.03
440.803
458.213
475.365
492.359
509.29
526.239
543.275
560.455
577.835
595.458
613.358
631.562
650.086
668.939
688.118
707.613
727.404
747.458
767.732
788.177
808.736
829.34
849.907
870.336
890.508
910.291
929.531
948.054
965.662
982.126
997.185
1010.54
1021.89
1030.93
1037.29
1040.66
1040.74
1037.36
1030.41
1019.84
1005.69
988.096
967.28
943.545
917.261
888.844
858.742
827.408
795.293
762.823
730.387
698.315
666.872
636.248
606.56
577.846
550.078
523.157
496.928
471.189
445.71
420.276
394.733
369.034
343.3
317.802
292.954
269.269
247.265
227.326
274.818
289.91
305.87
322.285
338.922
355.641
372.328
388.903
405.298
421.452
437.33
452.942
468.331
483.549
498.654
513.7
528.734
543.795
558.918
574.131
589.456
604.909
620.498
636.225
652.084
668.062
684.138
700.28
716.45
732.602
748.685
764.641
780.401
795.885
811.002
825.65
839.718
853.082
865.604
877.131
887.494
896.507
903.971
909.687
913.456
915.091
914.423
911.338
905.754
897.634
886.988
873.885
858.446
840.836
821.271
800.004
777.311
753.481
728.81
703.587
678.079
652.518
627.099
601.968
577.22
552.902
529.005
505.47
482.193
459.036
435.853
412.517
388.948
365.152
341.235
317.422
294.042
271.489
250.147
230.374
295.783
307.228
319.602
332.59
346.023
359.767
373.701
387.719
401.751
415.711
429.524
443.146
456.573
469.817
482.902
495.856
508.705
521.473
534.18
546.842
559.471
572.076
584.661
597.227
609.767
622.27
634.717
647.084
659.34
671.448
683.368
695.058
706.467
717.539
728.21
738.414
748.074
757.11
765.437
772.96
779.577
785.178
789.649
792.872
794.734
795.12
793.945
791.137
786.64
780.424
772.49
762.868
751.622
738.841
724.643
709.171
692.578
675.026
656.687
637.727
618.307
598.568
578.631
558.587
538.497
518.389
498.25
478.034
457.664
437.054
416.12
394.803
373.089
351.032
328.763
306.496
284.512
263.128
242.652
223.361
310.229
318.507
327.722
337.643
348.138
359.065
370.332
381.833
393.478
405.166
416.796
428.298
439.638
450.8
461.783
472.591
483.233
493.719
504.056
514.253
524.317
534.252
544.06
553.742
563.293
572.706
581.966
591.057
599.957
608.641
617.082
625.25
633.115
640.641
647.789
654.517
660.78
666.531
671.719
676.29
680.188
683.351
685.716
687.219
687.796
687.392
685.954
683.438
679.809
675.045
669.137
662.094
653.942
644.717
634.477
623.292
611.236
598.389
584.837
570.665
555.956
540.78
525.197
509.247
492.95
476.305
459.283
441.84
423.919
405.471
386.463
366.896
346.816
326.325
305.583
284.802
264.23
244.134
224.76
206.334
316.48
322.311
328.978
336.314
344.227
352.611
361.387
370.471
379.763
389.159
398.563
407.899
417.115
426.18
435.078
443.796
452.331
460.68
468.843
476.824
484.624
492.244
499.686
506.952
514.04
520.941
527.647
534.147
540.426
546.469
552.26
557.782
563.016
567.943
572.54
576.785
580.652
584.116
587.149
589.723
591.807
593.369
594.375
594.792
594.591
593.736
592.197
589.943
586.95
583.199
578.676
573.377
567.302
560.461
552.87
544.556
535.547
525.873
515.568
504.664
493.189
481.166
468.604
455.503
441.849
427.619
412.778
397.291
381.128
364.281
346.767
328.643
310.004
290.991
271.78
252.574
233.595
215.063
197.171
180.1
319.561
320.97
323.838
327.876
332.83
338.503
344.743
351.424
358.418
365.604
372.878
380.155
387.376
394.497
401.488
408.327
415.001
421.5
427.818
433.953
439.905
445.672
451.256
456.657
461.872
466.894
471.715
476.328
480.723
484.892
488.826
492.515
495.949
499.118
502.011
504.614
506.915
508.902
510.558
511.869
512.819
513.389
513.563