/*--------------------------------*- C++ -*----------------------------------*\
| =========                 |                                                 |
| \\      /  F ield         | OpenFOAM: The Open Source CFD Toolbox           |
|  \\    /   O peration     | Version:  v2012                                 |
|   \\  /    A nd           | Website:  www.openfoam.com                      |
|    \\/     M anipulation  |                                                 |
\*---------------------------------------------------------------------------*/
FoamFile
{
    version     2.0;
    format      ascii;
    class       volVectorField;
    location    "503";
    object      C;
}
// * * * * * * * * * * * * * * * * * * * * * * * * * * * * * * * * * * * * * //

dimensions      [0 1 0 0 0 0 0];


internalField   nonuniform List<vector> 
6556
(
(0.01 1.4875 -0.005)
(0.03 1.4875 -0.005)
(0.05 1.4875 -0.005)
(0.07 1.4875 -0.005)
(0.09 1.4875 -0.005)
(0.11 1.4875 -0.005)
(0.13 1.4875 -0.005)
(0.15 1.4875 -0.005)
(0.17 1.4875 -0.005)
(0.19 1.4875 -0.005)
(0.01 1.4625 -0.005)
(0.03 1.4625 -0.005)
(0.05 1.4625 -0.005)
(0.07 1.4625 -0.005)
(0.09 1.4625 -0.005)
(0.11 1.4625 -0.005)
(0.13 1.4625 -0.005)
(0.15 1.4625 -0.005)
(0.17 1.4625 -0.005)
(0.19 1.4625 -0.005)
(0.01 1.4375 -0.005)
(0.03 1.4375 -0.005)
(0.05 1.4375 -0.005)
(0.07 1.4375 -0.005)
(0.09 1.4375 -0.005)
(0.11 1.4375 -0.005)
(0.13 1.4375 -0.005)
(0.15 1.4375 -0.005)
(0.17 1.4375 -0.005)
(0.19 1.4375 -0.005)
(0.01 1.4125 -0.005)
(0.03 1.4125 -0.005)
(0.05 1.4125 -0.005)
(0.07 1.4125 -0.005)
(0.09 1.4125 -0.005)
(0.11 1.4125 -0.005)
(0.13 1.4125 -0.005)
(0.15 1.4125 -0.005)
(0.17 1.4125 -0.005)
(0.19 1.4125 -0.005)
(0.01 1.3875 -0.005)
(0.03 1.3875 -0.005)
(0.05 1.3875 -0.005)
(0.07 1.3875 -0.005)
(0.09 1.3875 -0.005)
(0.11 1.3875 -0.005)
(0.13 1.3875 -0.005)
(0.15 1.3875 -0.005)
(0.17 1.3875 -0.005)
(0.19 1.3875 -0.005)
(0.01 1.3625 -0.005)
(0.03 1.3625 -0.005)
(0.05 1.3625 -0.005)
(0.07 1.3625 -0.005)
(0.09 1.3625 -0.005)
(0.11 1.3625 -0.005)
(0.13 1.3625 -0.005)
(0.15 1.3625 -0.005)
(0.17 1.3625 -0.005)
(0.19 1.3625 -0.005)
(0.01 1.3375 -0.005)
(0.03 1.3375 -0.005)
(0.05 1.3375 -0.005)
(0.07 1.3375 -0.005)
(0.09 1.3375 -0.005)
(0.11 1.3375 -0.005)
(0.13 1.3375 -0.005)
(0.15 1.3375 -0.005)
(0.17 1.3375 -0.005)
(0.19 1.3375 -0.005)
(0.01 1.3125 -0.005)
(0.03 1.3125 -0.005)
(0.05 1.3125 -0.005)
(0.07 1.3125 -0.005)
(0.09 1.3125 -0.005)
(0.11 1.3125 -0.005)
(0.13 1.3125 -0.005)
(0.15 1.3125 -0.005)
(0.17 1.3125 -0.005)
(0.19 1.3125 -0.005)
(0.01 1.2875 -0.005)
(0.03 1.2875 -0.005)
(0.05 1.2875 -0.005)
(0.07 1.2875 -0.005)
(0.09 1.2875 -0.005)
(0.11 1.2875 -0.005)
(0.13 1.2875 -0.005)
(0.15 1.2875 -0.005)
(0.17 1.2875 -0.005)
(0.19 1.2875 -0.005)
(0.01 1.2625 -0.005)
(0.03 1.2625 -0.005)
(0.05 1.2625 -0.005)
(0.07 1.2625 -0.005)
(0.09 1.2625 -0.005)
(0.11 1.2625 -0.005)
(0.13 1.2625 -0.005)
(0.15 1.2625 -0.005)
(0.17 1.2625 -0.005)
(0.19 1.2625 -0.005)
(0.01 1.2375 -0.005)
(0.03 1.2375 -0.005)
(0.05 1.2375 -0.005)
(0.07 1.2375 -0.005)
(0.09 1.2375 -0.005)
(0.11 1.2375 -0.005)
(0.13 1.2375 -0.005)
(0.15 1.2375 -0.005)
(0.17 1.2375 -0.005)
(0.19 1.2375 -0.005)
(0.01 1.2125 -0.005)
(0.03 1.2125 -0.005)
(0.05 1.2125 -0.005)
(0.07 1.2125 -0.005)
(0.09 1.2125 -0.005)
(0.11 1.2125 -0.005)
(0.13 1.2125 -0.005)
(0.15 1.2125 -0.005)
(0.17 1.2125 -0.005)
(0.19 1.2125 -0.005)
(0.01 1.1875 -0.005)
(0.03 1.1875 -0.005)
(0.05 1.1875 -0.005)
(0.07 1.1875 -0.005)
(0.09 1.1875 -0.005)
(0.11 1.1875 -0.005)
(0.13 1.1875 -0.005)
(0.15 1.1875 -0.005)
(0.17 1.1875 -0.005)
(0.19 1.1875 -0.005)
(0.01 1.1625 -0.005)
(0.03 1.1625 -0.005)
(0.05 1.1625 -0.005)
(0.07 1.1625 -0.005)
(0.09 1.1625 -0.005)
(0.11 1.1625 -0.005)
(0.13 1.1625 -0.005)
(0.15 1.1625 -0.005)
(0.17 1.1625 -0.005)
(0.19 1.1625 -0.005)
(0.01 1.1375 -0.005)
(0.03 1.1375 -0.005)
(0.05 1.1375 -0.005)
(0.07 1.1375 -0.005)
(0.09 1.1375 -0.005)
(0.11 1.1375 -0.005)
(0.13 1.1375 -0.005)
(0.15 1.1375 -0.005)
(0.17 1.1375 -0.005)
(0.19 1.1375 -0.005)
(0.01 1.1125 -0.005)
(0.03 1.1125 -0.005)
(0.05 1.1125 -0.005)
(0.07 1.1125 -0.005)
(0.09 1.1125 -0.005)
(0.11 1.1125 -0.005)
(0.13 1.1125 -0.005)
(0.15 1.1125 -0.005)
(0.17 1.1125 -0.005)
(0.19 1.1125 -0.005)
(0.01 1.0875 -0.005)
(0.03 1.0875 -0.005)
(0.05 1.0875 -0.005)
(0.07 1.0875 -0.005)
(0.09 1.0875 -0.005)
(0.11 1.0875 -0.005)
(0.13 1.0875 -0.005)
(0.15 1.0875 -0.005)
(0.17 1.0875 -0.005)
(0.19 1.0875 -0.005)
(0.01 1.0625 -0.005)
(0.03 1.0625 -0.005)
(0.05 1.0625 -0.005)
(0.07 1.0625 -0.005)
(0.09 1.0625 -0.005)
(0.11 1.0625 -0.005)
(0.13 1.0625 -0.005)
(0.15 1.0625 -0.005)
(0.17 1.0625 -0.005)
(0.19 1.0625 -0.005)
(0.01 1.0375 -0.005)
(0.03 1.0375 -0.005)
(0.05 1.0375 -0.005)
(0.07 1.0375 -0.005)
(0.09 1.0375 -0.005)
(0.11 1.0375 -0.005)
(0.13 1.0375 -0.005)
(0.15 1.0375 -0.005)
(0.17 1.0375 -0.005)
(0.19 1.0375 -0.005)
(0.01 1.0125 -0.005)
(0.03 1.0125 -0.005)
(0.05 1.0125 -0.005)
(0.07 1.0125 -0.005)
(0.09 1.0125 -0.005)
(0.11 1.0125 -0.005)
(0.13 1.0125 -0.005)
(0.15 1.0125 -0.005)
(0.17 1.0125 -0.005)
(0.19 1.0125 -0.005)
(0.01 0.9875 -0.005)
(0.03 0.9875 -0.005)
(0.05 0.9875 -0.005)
(0.07 0.9875 -0.005)
(0.09 0.9875 -0.005)
(0.11 0.9875 -0.005)
(0.13 0.9875 -0.005)
(0.15 0.9875 -0.005)
(0.17 0.9875 -0.005)
(0.19 0.9875 -0.005)
(0.01 0.9625 -0.005)
(0.03 0.9625 -0.005)
(0.05 0.9625 -0.005)
(0.07 0.9625 -0.005)
(0.09 0.9625 -0.005)
(0.11 0.9625 -0.005)
(0.13 0.9625 -0.005)
(0.15 0.9625 -0.005)
(0.17 0.9625 -0.005)
(0.19 0.9625 -0.005)
(0.01 0.9375 -0.005)
(0.03 0.9375 -0.005)
(0.05 0.9375 -0.005)
(0.07 0.9375 -0.005)
(0.09 0.9375 -0.005)
(0.11 0.9375 -0.005)
(0.13 0.9375 -0.005)
(0.15 0.9375 -0.005)
(0.17 0.9375 -0.005)
(0.19 0.9375 -0.005)
(0.01 0.9125 -0.005)
(0.03 0.9125 -0.005)
(0.05 0.9125 -0.005)
(0.07 0.9125 -0.005)
(0.09 0.9125 -0.005)
(0.11 0.9125 -0.005)
(0.13 0.9125 -0.005)
(0.15 0.9125 -0.005)
(0.17 0.9125 -0.005)
(0.19 0.9125 -0.005)
(0.01 0.8875 -0.005)
(0.03 0.8875 -0.005)
(0.05 0.8875 -0.005)
(0.07 0.8875 -0.005)
(0.09 0.8875 -0.005)
(0.11 0.8875 -0.005)
(0.13 0.8875 -0.005)
(0.15 0.8875 -0.005)
(0.17 0.8875 -0.005)
(0.19 0.8875 -0.005)
(0.01 0.8625 -0.005)
(0.03 0.8625 -0.005)
(0.05 0.8625 -0.005)
(0.07 0.8625 -0.005)
(0.09 0.8625 -0.005)
(0.11 0.8625 -0.005)
(0.13 0.8625 -0.005)
(0.15 0.8625 -0.005)
(0.17 0.8625 -0.005)
(0.19 0.8625 -0.005)
(0.01 0.8375 -0.005)
(0.03 0.8375 -0.005)
(0.05 0.8375 -0.005)
(0.07 0.8375 -0.005)
(0.09 0.8375 -0.005)
(0.11 0.8375 -0.005)
(0.13 0.8375 -0.005)
(0.15 0.8375 -0.005)
(0.17 0.8375 -0.005)
(0.19 0.8375 -0.005)
(0.01 0.8125 -0.005)
(0.03 0.8125 -0.005)
(0.05 0.8125 -0.005)
(0.07 0.8125 -0.005)
(0.09 0.8125 -0.005)
(0.11 0.8125 -0.005)
(0.13 0.8125 -0.005)
(0.15 0.8125 -0.005)
(0.17 0.8125 -0.005)
(0.19 0.8125 -0.005)
(0.01 0.7875 -0.005)
(0.03 0.7875 -0.005)
(0.05 0.7875 -0.005)
(0.07 0.7875 -0.005)
(0.09 0.7875 -0.005)
(0.11 0.7875 -0.005)
(0.13 0.7875 -0.005)
(0.15 0.7875 -0.005)
(0.17 0.7875 -0.005)
(0.19 0.7875 -0.005)
(0.01 0.7625 -0.005)
(0.03 0.7625 -0.005)
(0.05 0.7625 -0.005)
(0.07 0.7625 -0.005)
(0.09 0.7625 -0.005)
(0.11 0.7625 -0.005)
(0.13 0.7625 -0.005)
(0.15 0.7625 -0.005)
(0.17 0.7625 -0.005)
(0.19 0.7625 -0.005)
(0.01 0.7375 -0.005)
(0.03 0.7375 -0.005)
(0.05 0.7375 -0.005)
(0.07 0.7375 -0.005)
(0.09 0.7375 -0.005)
(0.11 0.7375 -0.005)
(0.13 0.7375 -0.005)
(0.15 0.7375 -0.005)
(0.17 0.7375 -0.005)
(0.19 0.7375 -0.005)
(0.01 0.7125 -0.005)
(0.03 0.7125 -0.005)
(0.05 0.7125 -0.005)
(0.07 0.7125 -0.005)
(0.09 0.7125 -0.005)
(0.11 0.7125 -0.005)
(0.13 0.7125 -0.005)
(0.15 0.7125 -0.005)
(0.17 0.7125 -0.005)
(0.19 0.7125 -0.005)
(0.01 0.6875 -0.005)
(0.03 0.6875 -0.005)
(0.05 0.6875 -0.005)
(0.07 0.6875 -0.005)
(0.09 0.6875 -0.005)
(0.11 0.6875 -0.005)
(0.13 0.6875 -0.005)
(0.15 0.6875 -0.005)
(0.17 0.6875 -0.005)
(0.19 0.6875 -0.005)
(0.01 0.6625 -0.005)
(0.03 0.6625 -0.005)
(0.05 0.6625 -0.005)
(0.07 0.6625 -0.005)
(0.09 0.6625 -0.005)
(0.11 0.6625 -0.005)
(0.13 0.6625 -0.005)
(0.15 0.6625 -0.005)
(0.17 0.6625 -0.005)
(0.19 0.6625 -0.005)
(0.01 0.6375 -0.005)
(0.03 0.6375 -0.005)
(0.05 0.6375 -0.005)
(0.07 0.6375 -0.005)
(0.09 0.6375 -0.005)
(0.11 0.6375 -0.005)
(0.13 0.6375 -0.005)
(0.15 0.6375 -0.005)
(0.17 0.6375 -0.005)
(0.19 0.6375 -0.005)
(0.01 0.6125 -0.005)
(0.03 0.6125 -0.005)
(0.05 0.6125 -0.005)
(0.07 0.6125 -0.005)
(0.09 0.6125 -0.005)
(0.11 0.6125 -0.005)
(0.13 0.6125 -0.005)
(0.15 0.6125 -0.005)
(0.17 0.6125 -0.005)
(0.19 0.6125 -0.005)
(0.01 0.5875 -0.005)
(0.03 0.5875 -0.005)
(0.05 0.5875 -0.005)
(0.07 0.5875 -0.005)
(0.09 0.5875 -0.005)
(0.11 0.5875 -0.005)
(0.13 0.5875 -0.005)
(0.15 0.5875 -0.005)
(0.17 0.5875 -0.005)
(0.19 0.5875 -0.005)
(0.01 0.5625 -0.005)
(0.03 0.5625 -0.005)
(0.05 0.5625 -0.005)
(0.07 0.5625 -0.005)
(0.09 0.5625 -0.005)
(0.11 0.5625 -0.005)
(0.13 0.5625 -0.005)
(0.15 0.5625 -0.005)
(0.17 0.5625 -0.005)
(0.19 0.5625 -0.005)
(0.01 0.5375 -0.005)
(0.03 0.5375 -0.005)
(0.05 0.5375 -0.005)
(0.07 0.5375 -0.005)
(0.09 0.5375 -0.005)
(0.11 0.5375 -0.005)
(0.13 0.5375 -0.005)
(0.15 0.5375 -0.005)
(0.17 0.5375 -0.005)
(0.19 0.5375 -0.005)
(0.01 0.5125 -0.005)
(0.03 0.5125 -0.005)
(0.05 0.5125 -0.005)
(0.07 0.5125 -0.005)
(0.09 0.5125 -0.005)
(0.11 0.5125 -0.005)
(0.13 0.5125 -0.005)
(0.15 0.5125 -0.005)
(0.17 0.5125 -0.005)
(0.19 0.5125 -0.005)
(0.01 0.4875 -0.005)
(0.03 0.4875 -0.005)
(0.05 0.4875 -0.005)
(0.07 0.4875 -0.005)
(0.09 0.4875 -0.005)
(0.11 0.4875 -0.005)
(0.13 0.4875 -0.005)
(0.15 0.4875 -0.005)
(0.17 0.4875 -0.005)
(0.19 0.4875 -0.005)
(0.01 0.4625 -0.005)
(0.03 0.4625 -0.005)
(0.05 0.4625 -0.005)
(0.07 0.4625 -0.005)
(0.09 0.4625 -0.005)
(0.11 0.4625 -0.005)
(0.13 0.4625 -0.005)
(0.15 0.4625 -0.005)
(0.17 0.4625 -0.005)
(0.19 0.4625 -0.005)
(0.01 0.4375 -0.005)
(0.03 0.4375 -0.005)
(0.05 0.4375 -0.005)
(0.07 0.4375 -0.005)
(0.09 0.4375 -0.005)
(0.11 0.4375 -0.005)
(0.13 0.4375 -0.005)
(0.15 0.4375 -0.005)
(0.17 0.4375 -0.005)
(0.19 0.4375 -0.005)
(0.01 0.4125 -0.005)
(0.03 0.4125 -0.005)
(0.05 0.4125 -0.005)
(0.07 0.4125 -0.005)
(0.09 0.4125 -0.005)
(0.11 0.4125 -0.005)
(0.13 0.4125 -0.005)
(0.15 0.4125 -0.005)
(0.17 0.4125 -0.005)
(0.19 0.4125 -0.005)
(0.01 0.3875 -0.005)
(0.03 0.3875 -0.005)
(0.05 0.3875 -0.005)
(0.07 0.3875 -0.005)
(0.09 0.3875 -0.005)
(0.11 0.3875 -0.005)
(0.13 0.3875 -0.005)
(0.15 0.3875 -0.005)
(0.17 0.3875 -0.005)
(0.19 0.3875 -0.005)
(0.01 0.3625 -0.005)
(0.03 0.3625 -0.005)
(0.05 0.3625 -0.005)
(0.07 0.3625 -0.005)
(0.09 0.3625 -0.005)
(0.11 0.3625 -0.005)
(0.13 0.3625 -0.005)
(0.15 0.3625 -0.005)
(0.17 0.3625 -0.005)
(0.19 0.3625 -0.005)
(0.01 0.3375 -0.005)
(0.03 0.3375 -0.005)
(0.05 0.3375 -0.005)
(0.07 0.3375 -0.005)
(0.09 0.3375 -0.005)
(0.11 0.3375 -0.005)
(0.13 0.3375 -0.005)
(0.15 0.3375 -0.005)
(0.17 0.3375 -0.005)
(0.19 0.3375 -0.005)
(0.01 0.3125 -0.005)
(0.03 0.3125 -0.005)
(0.05 0.3125 -0.005)
(0.07 0.3125 -0.005)
(0.09 0.3125 -0.005)
(0.11 0.3125 -0.005)
(0.13 0.3125 -0.005)
(0.15 0.3125 -0.005)
(0.17 0.3125 -0.005)
(0.19 0.3125 -0.005)
(0.01 0.2875 -0.005)
(0.03 0.2875 -0.005)
(0.05 0.2875 -0.005)
(0.07 0.2875 -0.005)
(0.09 0.2875 -0.005)
(0.11 0.2875 -0.005)
(0.13 0.2875 -0.005)
(0.15 0.2875 -0.005)
(0.17 0.2875 -0.005)
(0.19 0.2875 -0.005)
(0.01 0.2625 -0.005)
(0.03 0.2625 -0.005)
(0.05 0.2625 -0.005)
(0.07 0.2625 -0.005)
(0.09 0.2625 -0.005)
(0.11 0.2625 -0.005)
(0.13 0.2625 -0.005)
(0.15 0.2625 -0.005)
(0.17 0.2625 -0.005)
(0.19 0.2625 -0.005)
(0.01 0.2375 -0.005)
(0.03 0.2375 -0.005)
(0.05 0.2375 -0.005)
(0.07 0.2375 -0.005)
(0.09 0.2375 -0.005)
(0.11 0.2375 -0.005)
(0.13 0.2375 -0.005)
(0.15 0.2375 -0.005)
(0.17 0.2375 -0.005)
(0.19 0.2375 -0.005)
(0.01 0.2125 -0.005)
(0.03 0.2125 -0.005)
(0.05 0.2125 -0.005)
(0.07 0.2125 -0.005)
(0.09 0.2125 -0.005)
(0.11 0.2125 -0.005)
(0.13 0.2125 -0.005)
(0.15 0.2125 -0.005)
(0.17 0.2125 -0.005)
(0.19 0.2125 -0.005)
(0.01 0.1875 -0.005)
(0.03 0.1875 -0.005)
(0.05 0.1875 -0.005)
(0.07 0.1875 -0.005)
(0.09 0.1875 -0.005)
(0.11 0.1875 -0.005)
(0.13 0.1875 -0.005)
(0.15 0.1875 -0.005)
(0.17 0.1875 -0.005)
(0.19 0.1875 -0.005)
(0.01 0.1625 -0.005)
(0.03 0.1625 -0.005)
(0.05 0.1625 -0.005)
(0.07 0.1625 -0.005)
(0.09 0.1625 -0.005)
(0.11 0.1625 -0.005)
(0.13 0.1625 -0.005)
(0.15 0.1625 -0.005)
(0.17 0.1625 -0.005)
(0.19 0.1625 -0.005)
(0.01 0.1375 -0.005)
(0.03 0.1375 -0.005)
(0.05 0.1375 -0.005)
(0.07 0.1375 -0.005)
(0.09 0.1375 -0.005)
(0.11 0.1375 -0.005)
(0.13 0.1375 -0.005)
(0.15 0.1375 -0.005)
(0.17 0.1375 -0.005)
(0.19 0.1375 -0.005)
(0.01 0.1125 -0.005)
(0.03 0.1125 -0.005)
(0.05 0.1125 -0.005)
(0.07 0.1125 -0.005)
(0.09 0.1125 -0.005)
(0.11 0.1125 -0.005)
(0.13 0.1125 -0.005)
(0.15 0.1125 -0.005)
(0.17 0.1125 -0.005)
(0.19 0.1125 -0.005)
(0.01 0.0875 -0.005)
(0.03 0.0875 -0.005)
(0.05 0.0875 -0.005)
(0.07 0.0875 -0.005)
(0.09 0.0875 -0.005)
(0.11 0.0875 -0.005)
(0.13 0.0875 -0.005)
(0.15 0.0875 -0.005)
(0.17 0.0875 -0.005)
(0.19 0.0875 -0.005)
(0.01 0.0625 -0.005)
(0.03 0.0625 -0.005)
(0.05 0.0625 -0.005)
(0.07 0.0625 -0.005)
(0.09 0.0625 -0.005)
(0.11 0.0625 -0.005)
(0.13 0.0625 -0.005)
(0.15 0.0625 -0.005)
(0.17 0.0625 -0.005)
(0.19 0.0625 -0.005)
(0.01 0.0375 -0.005)
(0.03 0.0375 -0.005)
(0.05 0.0375 -0.005)
(0.07 0.0375 -0.005)
(0.09 0.0375 -0.005)
(0.11 0.0375 -0.005)
(0.13 0.0375 -0.005)
(0.15 0.0375 -0.005)
(0.17 0.0375 -0.005)
(0.19 0.0375 -0.005)
(0.01 0.0125 -0.005)
(0.03 0.0125 -0.005)
(0.05 0.0125 -0.005)
(0.07 0.0125 -0.005)
(0.09 0.0125 -0.005)
(0.11 0.0125 -0.005)
(0.13 0.0125 -0.005)
(0.15 0.0125 -0.005)
(0.17 0.0125 -0.005)
(0.19 0.0125 -0.005)
(0.2095 0.9875 -0.005)
(0.2285 0.9875 -0.005)
(0.2475 0.9875 -0.005)
(0.2665 0.9875 -0.005)
(0.2855 0.9875 -0.005)
(0.3045 0.9875 -0.005)
(0.3235 0.9875 -0.005)
(0.3425 0.9875 -0.005)
(0.3615 0.9875 -0.005)
(0.3805 0.9875 -0.005)
(0.3995 0.9875 -0.005)
(0.4185 0.9875 -0.005)
(0.4375 0.9875 -0.005)
(0.4565 0.9875 -0.005)
(0.4755 0.9875 -0.005)
(0.4945 0.9875 -0.005)
(0.5135 0.9875 -0.005)
(0.5325 0.9875 -0.005)
(0.5515 0.9875 -0.005)
(0.5705 0.9875 -0.005)
(0.5895 0.9875 -0.005)
(0.6085 0.9875 -0.005)
(0.6275 0.9875 -0.005)
(0.6465 0.9875 -0.005)
(0.6655 0.9875 -0.005)
(0.2095 0.9625 -0.005)
(0.2285 0.9625 -0.005)
(0.2475 0.9625 -0.005)
(0.2665 0.9625 -0.005)
(0.2855 0.9625 -0.005)
(0.3045 0.9625 -0.005)
(0.3235 0.9625 -0.005)
(0.3425 0.9625 -0.005)
(0.3615 0.9625 -0.005)
(0.3805 0.9625 -0.005)
(0.3995 0.9625 -0.005)
(0.4185 0.9625 -0.005)
(0.4375 0.9625 -0.005)
(0.4565 0.9625 -0.005)
(0.4755 0.9625 -0.005)
(0.4945 0.9625 -0.005)
(0.5135 0.9625 -0.005)
(0.5325 0.9625 -0.005)
(0.5515 0.9625 -0.005)
(0.5705 0.9625 -0.005)
(0.5895 0.9625 -0.005)
(0.6085 0.9625 -0.005)
(0.6275 0.9625 -0.005)
(0.6465 0.9625 -0.005)
(0.6655 0.9625 -0.005)
(0.2095 0.9375 -0.005)
(0.2285 0.9375 -0.005)
(0.2475 0.9375 -0.005)
(0.2665 0.9375 -0.005)
(0.2855 0.9375 -0.005)
(0.3045 0.9375 -0.005)
(0.3235 0.9375 -0.005)
(0.3425 0.9375 -0.005)
(0.3615 0.9375 -0.005)
(0.3805 0.9375 -0.005)
(0.3995 0.9375 -0.005)
(0.4185 0.9375 -0.005)
(0.4375 0.9375 -0.005)
(0.4565 0.9375 -0.005)
(0.4755 0.9375 -0.005)
(0.4945 0.9375 -0.005)
(0.5135 0.9375 -0.005)
(0.5325 0.9375 -0.005)
(0.5515 0.9375 -0.005)
(0.5705 0.9375 -0.005)
(0.5895 0.9375 -0.005)
(0.6085 0.9375 -0.005)
(0.6275 0.9375 -0.005)
(0.6465 0.9375 -0.005)
(0.6655 0.9375 -0.005)
(0.2095 0.9125 -0.005)
(0.2285 0.9125 -0.005)
(0.2475 0.9125 -0.005)
(0.2665 0.9125 -0.005)
(0.2855 0.9125 -0.005)
(0.3045 0.9125 -0.005)
(0.3235 0.9125 -0.005)
(0.3425 0.9125 -0.005)
(0.3615 0.9125 -0.005)
(0.3805 0.9125 -0.005)
(0.3995 0.9125 -0.005)
(0.4185 0.9125 -0.005)
(0.4375 0.9125 -0.005)
(0.4565 0.9125 -0.005)
(0.4755 0.9125 -0.005)
(0.4945 0.9125 -0.005)
(0.5135 0.9125 -0.005)
(0.5325 0.9125 -0.005)
(0.5515 0.9125 -0.005)
(0.5705 0.9125 -0.005)
(0.5895 0.9125 -0.005)
(0.6085 0.9125 -0.005)
(0.6275 0.9125 -0.005)
(0.6465 0.9125 -0.005)
(0.6655 0.9125 -0.005)
(0.2095 0.8875 -0.005)
(0.2285 0.8875 -0.005)
(0.2475 0.8875 -0.005)
(0.2665 0.8875 -0.005)
(0.2855 0.8875 -0.005)
(0.3045 0.8875 -0.005)
(0.3235 0.8875 -0.005)
(0.3425 0.8875 -0.005)
(0.3615 0.8875 -0.005)
(0.3805 0.8875 -0.005)
(0.3995 0.8875 -0.005)
(0.4185 0.8875 -0.005)
(0.4375 0.8875 -0.005)
(0.4565 0.8875 -0.005)
(0.4755 0.8875 -0.005)
(0.4945 0.8875 -0.005)
(0.5135 0.8875 -0.005)
(0.5325 0.8875 -0.005)
(0.5515 0.8875 -0.005)
(0.5705 0.8875 -0.005)
(0.5895 0.8875 -0.005)
(0.6085 0.8875 -0.005)
(0.6275 0.8875 -0.005)
(0.6465 0.8875 -0.005)
(0.6655 0.8875 -0.005)
(0.2095 0.8625 -0.005)
(0.2285 0.8625 -0.005)
(0.2475 0.8625 -0.005)
(0.2665 0.8625 -0.005)
(0.2855 0.8625 -0.005)
(0.3045 0.8625 -0.005)
(0.3235 0.8625 -0.005)
(0.3425 0.8625 -0.005)
(0.3615 0.8625 -0.005)
(0.3805 0.8625 -0.005)
(0.3995 0.8625 -0.005)
(0.4185 0.8625 -0.005)
(0.4375 0.8625 -0.005)
(0.4565 0.8625 -0.005)
(0.4755 0.8625 -0.005)
(0.4945 0.8625 -0.005)
(0.5135 0.8625 -0.005)
(0.5325 0.8625 -0.005)
(0.5515 0.8625 -0.005)
(0.5705 0.8625 -0.005)
(0.5895 0.8625 -0.005)
(0.6085 0.8625 -0.005)
(0.6275 0.8625 -0.005)
(0.6465 0.8625 -0.005)
(0.6655 0.8625 -0.005)
(0.2095 0.8375 -0.005)
(0.2285 0.8375 -0.005)
(0.2475 0.8375 -0.005)
(0.2665 0.8375 -0.005)
(0.2855 0.8375 -0.005)
(0.3045 0.8375 -0.005)
(0.3235 0.8375 -0.005)
(0.3425 0.8375 -0.005)
(0.3615 0.8375 -0.005)
(0.3805 0.8375 -0.005)
(0.3995 0.8375 -0.005)
(0.4185 0.8375 -0.005)
(0.4375 0.8375 -0.005)
(0.4565 0.8375 -0.005)
(0.4755 0.8375 -0.005)
(0.4945 0.8375 -0.005)
(0.5135 0.8375 -0.005)
(0.5325 0.8375 -0.005)
(0.5515 0.8375 -0.005)
(0.5705 0.8375 -0.005)
(0.5895 0.8375 -0.005)
(0.6085 0.8375 -0.005)
(0.6275 0.8375 -0.005)
(0.6465 0.8375 -0.005)
(0.6655 0.8375 -0.005)
(0.2095 0.8125 -0.005)
(0.2285 0.8125 -0.005)
(0.2475 0.8125 -0.005)
(0.2665 0.8125 -0.005)
(0.2855 0.8125 -0.005)
(0.3045 0.8125 -0.005)
(0.3235 0.8125 -0.005)
(0.3425 0.8125 -0.005)
(0.3615 0.8125 -0.005)
(0.3805 0.8125 -0.005)
(0.3995 0.8125 -0.005)
(0.4185 0.8125 -0.005)
(0.4375 0.8125 -0.005)
(0.4565 0.8125 -0.005)
(0.4755 0.8125 -0.005)
(0.4945 0.8125 -0.005)
(0.5135 0.8125 -0.005)
(0.5325 0.8125 -0.005)
(0.5515 0.8125 -0.005)
(0.5705 0.8125 -0.005)
(0.5895 0.8125 -0.005)
(0.6085 0.8125 -0.005)
(0.6275 0.8125 -0.005)
(0.6465 0.8125 -0.005)
(0.6655 0.8125 -0.005)
(0.2095 0.7875 -0.005)
(0.2285 0.7875 -0.005)
(0.2475 0.7875 -0.005)
(0.2665 0.7875 -0.005)
(0.2855 0.7875 -0.005)
(0.3045 0.7875 -0.005)
(0.3235 0.7875 -0.005)
(0.3425 0.7875 -0.005)
(0.3615 0.7875 -0.005)
(0.3805 0.7875 -0.005)
(0.3995 0.7875 -0.005)
(0.4185 0.7875 -0.005)
(0.4375 0.7875 -0.005)
(0.4565 0.7875 -0.005)
(0.4755 0.7875 -0.005)
(0.4945 0.7875 -0.005)
(0.5135 0.7875 -0.005)
(0.5325 0.7875 -0.005)
(0.5515 0.7875 -0.005)
(0.5705 0.7875 -0.005)
(0.5895 0.7875 -0.005)
(0.6085 0.7875 -0.005)
(0.6275 0.7875 -0.005)
(0.6465 0.7875 -0.005)
(0.6655 0.7875 -0.005)
(0.2095 0.7625 -0.005)
(0.2285 0.7625 -0.005)
(0.2475 0.7625 -0.005)
(0.2665 0.7625 -0.005)
(0.2855 0.7625 -0.005)
(0.3045 0.7625 -0.005)
(0.3235 0.7625 -0.005)
(0.3425 0.7625 -0.005)
(0.3615 0.7625 -0.005)
(0.3805 0.7625 -0.005)
(0.3995 0.7625 -0.005)
(0.4185 0.7625 -0.005)
(0.4375 0.7625 -0.005)
(0.4565 0.7625 -0.005)
(0.4755 0.7625 -0.005)
(0.4945 0.7625 -0.005)
(0.5135 0.7625 -0.005)
(0.5325 0.7625 -0.005)
(0.5515 0.7625 -0.005)
(0.5705 0.7625 -0.005)
(0.5895 0.7625 -0.005)
(0.6085 0.7625 -0.005)
(0.6275 0.7625 -0.005)
(0.6465 0.7625 -0.005)
(0.6655 0.7625 -0.005)
(0.2095 0.7375 -0.005)
(0.2285 0.7375 -0.005)
(0.2475 0.7375 -0.005)
(0.2665 0.7375 -0.005)
(0.2855 0.7375 -0.005)
(0.3045 0.7375 -0.005)
(0.3235 0.7375 -0.005)
(0.3425 0.7375 -0.005)
(0.3615 0.7375 -0.005)
(0.3805 0.7375 -0.005)
(0.3995 0.7375 -0.005)
(0.4185 0.7375 -0.005)
(0.4375 0.7375 -0.005)
(0.4565 0.7375 -0.005)
(0.4755 0.7375 -0.005)
(0.4945 0.7375 -0.005)
(0.5135 0.7375 -0.005)
(0.5325 0.7375 -0.005)
(0.5515 0.7375 -0.005)
(0.5705 0.7375 -0.005)
(0.5895 0.7375 -0.005)
(0.6085 0.7375 -0.005)
(0.6275 0.7375 -0.005)
(0.6465 0.7375 -0.005)
(0.6655 0.7375 -0.005)
(0.2095 0.7125 -0.005)
(0.2285 0.7125 -0.005)
(0.2475 0.7125 -0.005)
(0.2665 0.7125 -0.005)
(0.2855 0.7125 -0.005)
(0.3045 0.7125 -0.005)
(0.3235 0.7125 -0.005)
(0.3425 0.7125 -0.005)
(0.3615 0.7125 -0.005)
(0.3805 0.7125 -0.005)
(0.3995 0.7125 -0.005)
(0.4185 0.7125 -0.005)
(0.4375 0.7125 -0.005)
(0.4565 0.7125 -0.005)
(0.4755 0.7125 -0.005)
(0.4945 0.7125 -0.005)
(0.5135 0.7125 -0.005)
(0.5325 0.7125 -0.005)
(0.5515 0.7125 -0.005)
(0.5705 0.7125 -0.005)
(0.5895 0.7125 -0.005)
(0.6085 0.7125 -0.005)
(0.6275 0.7125 -0.005)
(0.6465 0.7125 -0.005)
(0.6655 0.7125 -0.005)
(0.2095 0.6875 -0.005)
(0.2285 0.6875 -0.005)
(0.2475 0.6875 -0.005)
(0.2665 0.6875 -0.005)
(0.2855 0.6875 -0.005)
(0.3045 0.6875 -0.005)
(0.3235 0.6875 -0.005)
(0.3425 0.6875 -0.005)
(0.3615 0.6875 -0.005)
(0.3805 0.6875 -0.005)
(0.3995 0.6875 -0.005)
(0.4185 0.6875 -0.005)
(0.4375 0.6875 -0.005)
(0.4565 0.6875 -0.005)
(0.4755 0.6875 -0.005)
(0.4945 0.6875 -0.005)
(0.5135 0.6875 -0.005)
(0.5325 0.6875 -0.005)
(0.5515 0.6875 -0.005)
(0.5705 0.6875 -0.005)
(0.5895 0.6875 -0.005)
(0.6085 0.6875 -0.005)
(0.6275 0.6875 -0.005)
(0.6465 0.6875 -0.005)
(0.6655 0.6875 -0.005)
(0.2095 0.6625 -0.005)
(0.2285 0.6625 -0.005)
(0.2475 0.6625 -0.005)
(0.2665 0.6625 -0.005)
(0.2855 0.6625 -0.005)
(0.3045 0.6625 -0.005)
(0.3235 0.6625 -0.005)
(0.3425 0.6625 -0.005)
(0.3615 0.6625 -0.005)
(0.3805 0.6625 -0.005)
(0.3995 0.6625 -0.005)
(0.4185 0.6625 -0.005)
(0.4375 0.6625 -0.005)
(0.4565 0.6625 -0.005)
(0.4755 0.6625 -0.005)
(0.4945 0.6625 -0.005)
(0.5135 0.6625 -0.005)
(0.5325 0.6625 -0.005)
(0.5515 0.6625 -0.005)
(0.5705 0.6625 -0.005)
(0.5895 0.6625 -0.005)
(0.6085 0.6625 -0.005)
(0.6275 0.6625 -0.005)
(0.6465 0.6625 -0.005)
(0.6655 0.6625 -0.005)
(0.2095 0.6375 -0.005)
(0.2285 0.6375 -0.005)
(0.2475 0.6375 -0.005)
(0.2665 0.6375 -0.005)
(0.2855 0.6375 -0.005)
(0.3045 0.6375 -0.005)
(0.3235 0.6375 -0.005)
(0.3425 0.6375 -0.005)
(0.3615 0.6375 -0.005)
(0.3805 0.6375 -0.005)
(0.3995 0.6375 -0.005)
(0.4185 0.6375 -0.005)
(0.4375 0.6375 -0.005)
(0.4565 0.6375 -0.005)
(0.4755 0.6375 -0.005)
(0.4945 0.6375 -0.005)
(0.5135 0.6375 -0.005)
(0.5325 0.6375 -0.005)
(0.5515 0.6375 -0.005)
(0.5705 0.6375 -0.005)
(0.5895 0.6375 -0.005)
(0.6085 0.6375 -0.005)
(0.6275 0.6375 -0.005)
(0.6465 0.6375 -0.005)
(0.6655 0.6375 -0.005)
(0.2095 0.6125 -0.005)
(0.2285 0.6125 -0.005)
(0.2475 0.6125 -0.005)
(0.2665 0.6125 -0.005)
(0.2855 0.6125 -0.005)
(0.3045 0.6125 -0.005)
(0.3235 0.6125 -0.005)
(0.3425 0.6125 -0.005)
(0.3615 0.6125 -0.005)
(0.3805 0.6125 -0.005)
(0.3995 0.6125 -0.005)
(0.4185 0.6125 -0.005)
(0.4375 0.6125 -0.005)
(0.4565 0.6125 -0.005)
(0.4755 0.6125 -0.005)
(0.4945 0.6125 -0.005)
(0.5135 0.6125 -0.005)
(0.5325 0.6125 -0.005)
(0.5515 0.6125 -0.005)
(0.5705 0.6125 -0.005)
(0.5895 0.6125 -0.005)
(0.6085 0.6125 -0.005)
(0.6275 0.6125 -0.005)
(0.6465 0.6125 -0.005)
(0.6655 0.6125 -0.005)
(0.2095 0.5875 -0.005)
(0.2285 0.5875 -0.005)
(0.2475 0.5875 -0.005)
(0.2665 0.5875 -0.005)
(0.2855 0.5875 -0.005)
(0.3045 0.5875 -0.005)
(0.3235 0.5875 -0.005)
(0.3425 0.5875 -0.005)
(0.3615 0.5875 -0.005)
(0.3805 0.5875 -0.005)
(0.3995 0.5875 -0.005)
(0.4185 0.5875 -0.005)
(0.4375 0.5875 -0.005)
(0.4565 0.5875 -0.005)
(0.4755 0.5875 -0.005)
(0.4945 0.5875 -0.005)
(0.5135 0.5875 -0.005)
(0.5325 0.5875 -0.005)
(0.5515 0.5875 -0.005)
(0.5705 0.5875 -0.005)
(0.5895 0.5875 -0.005)
(0.6085 0.5875 -0.005)
(0.6275 0.5875 -0.005)
(0.6465 0.5875 -0.005)
(0.6655 0.5875 -0.005)
(0.2095 0.5625 -0.005)
(0.2285 0.5625 -0.005)
(0.2475 0.5625 -0.005)
(0.2665 0.5625 -0.005)
(0.2855 0.5625 -0.005)
(0.3045 0.5625 -0.005)
(0.3235 0.5625 -0.005)
(0.3425 0.5625 -0.005)
(0.3615 0.5625 -0.005)
(0.3805 0.5625 -0.005)
(0.3995 0.5625 -0.005)
(0.4185 0.5625 -0.005)
(0.4375 0.5625 -0.005)
(0.4565 0.5625 -0.005)
(0.4755 0.5625 -0.005)
(0.4945 0.5625 -0.005)
(0.5135 0.5625 -0.005)
(0.5325 0.5625 -0.005)
(0.5515 0.5625 -0.005)
(0.5705 0.5625 -0.005)
(0.5895 0.5625 -0.005)
(0.6085 0.5625 -0.005)
(0.6275 0.5625 -0.005)
(0.6465 0.5625 -0.005)
(0.6655 0.5625 -0.005)
(0.2095 0.5375 -0.005)
(0.2285 0.5375 -0.005)
(0.2475 0.5375 -0.005)
(0.2665 0.5375 -0.005)
(0.2855 0.5375 -0.005)
(0.3045 0.5375 -0.005)
(0.3235 0.5375 -0.005)
(0.3425 0.5375 -0.005)
(0.3615 0.5375 -0.005)
(0.3805 0.5375 -0.005)
(0.3995 0.5375 -0.005)
(0.4185 0.5375 -0.005)
(0.4375 0.5375 -0.005)
(0.4565 0.5375 -0.005)
(0.4755 0.5375 -0.005)
(0.4945 0.5375 -0.005)
(0.5135 0.5375 -0.005)
(0.5325 0.5375 -0.005)
(0.5515 0.5375 -0.005)
(0.5705 0.5375 -0.005)
(0.5895 0.5375 -0.005)
(0.6085 0.5375 -0.005)
(0.6275 0.5375 -0.005)
(0.6465 0.5375 -0.005)
(0.6655 0.5375 -0.005)
(0.2095 0.5125 -0.005)
(0.2285 0.5125 -0.005)
(0.2475 0.5125 -0.005)
(0.2665 0.5125 -0.005)
(0.2855 0.5125 -0.005)
(0.3045 0.5125 -0.005)
(0.3235 0.5125 -0.005)
(0.3425 0.5125 -0.005)
(0.3615 0.5125 -0.005)
(0.3805 0.5125 -0.005)
(0.3995 0.5125 -0.005)
(0.4185 0.5125 -0.005)
(0.4375 0.5125 -0.005)
(0.4565 0.5125 -0.005)
(0.4755 0.5125 -0.005)
(0.4945 0.5125 -0.005)
(0.5135 0.5125 -0.005)
(0.5325 0.5125 -0.005)
(0.5515 0.5125 -0.005)
(0.5705 0.5125 -0.005)
(0.5895 0.5125 -0.005)
(0.6085 0.5125 -0.005)
(0.6275 0.5125 -0.005)
(0.6465 0.5125 -0.005)
(0.6655 0.5125 -0.005)
(0.2095 0.4875 -0.005)
(0.2285 0.4875 -0.005)
(0.2475 0.4875 -0.005)
(0.2665 0.4875 -0.005)
(0.2855 0.4875 -0.005)
(0.3045 0.4875 -0.005)
(0.3235 0.4875 -0.005)
(0.3425 0.4875 -0.005)
(0.3615 0.4875 -0.005)
(0.3805 0.4875 -0.005)
(0.3995 0.4875 -0.005)
(0.4185 0.4875 -0.005)
(0.4375 0.4875 -0.005)
(0.4565 0.4875 -0.005)
(0.4755 0.4875 -0.005)
(0.4945 0.4875 -0.005)
(0.5135 0.4875 -0.005)
(0.5325 0.4875 -0.005)
(0.5515 0.4875 -0.005)
(0.5705 0.4875 -0.005)
(0.5895 0.4875 -0.005)
(0.6085 0.4875 -0.005)
(0.6275 0.4875 -0.005)
(0.6465 0.4875 -0.005)
(0.6655 0.4875 -0.005)
(0.2095 0.4625 -0.005)
(0.2285 0.4625 -0.005)
(0.2475 0.4625 -0.005)
(0.2665 0.4625 -0.005)
(0.2855 0.4625 -0.005)
(0.3045 0.4625 -0.005)
(0.3235 0.4625 -0.005)
(0.3425 0.4625 -0.005)
(0.3615 0.4625 -0.005)
(0.3805 0.4625 -0.005)
(0.3995 0.4625 -0.005)
(0.4185 0.4625 -0.005)
(0.4375 0.4625 -0.005)
(0.4565 0.4625 -0.005)
(0.4755 0.4625 -0.005)
(0.4945 0.4625 -0.005)
(0.5135 0.4625 -0.005)
(0.5325 0.4625 -0.005)
(0.5515 0.4625 -0.005)
(0.5705 0.4625 -0.005)
(0.5895 0.4625 -0.005)
(0.6085 0.4625 -0.005)
(0.6275 0.4625 -0.005)
(0.6465 0.4625 -0.005)
(0.6655 0.4625 -0.005)
(0.2095 0.4375 -0.005)
(0.2285 0.4375 -0.005)
(0.2475 0.4375 -0.005)
(0.2665 0.4375 -0.005)
(0.2855 0.4375 -0.005)
(0.3045 0.4375 -0.005)
(0.3235 0.4375 -0.005)
(0.3425 0.4375 -0.005)
(0.3615 0.4375 -0.005)
(0.3805 0.4375 -0.005)
(0.3995 0.4375 -0.005)
(0.4185 0.4375 -0.005)
(0.4375 0.4375 -0.005)
(0.4565 0.4375 -0.005)
(0.4755 0.4375 -0.005)
(0.4945 0.4375 -0.005)
(0.5135 0.4375 -0.005)
(0.5325 0.4375 -0.005)
(0.5515 0.4375 -0.005)
(0.5705 0.4375 -0.005)
(0.5895 0.4375 -0.005)
(0.6085 0.4375 -0.005)
(0.6275 0.4375 -0.005)
(0.6465 0.4375 -0.005)
(0.6655 0.4375 -0.005)
(0.2095 0.4125 -0.005)
(0.2285 0.4125 -0.005)
(0.2475 0.4125 -0.005)
(0.2665 0.4125 -0.005)
(0.2855 0.4125 -0.005)
(0.3045 0.4125 -0.005)
(0.3235 0.4125 -0.005)
(0.3425 0.4125 -0.005)
(0.3615 0.4125 -0.005)
(0.3805 0.4125 -0.005)
(0.3995 0.4125 -0.005)
(0.4185 0.4125 -0.005)
(0.4375 0.4125 -0.005)
(0.4565 0.4125 -0.005)
(0.4755 0.4125 -0.005)
(0.4945 0.4125 -0.005)
(0.5135 0.4125 -0.005)
(0.5325 0.4125 -0.005)
(0.5515 0.4125 -0.005)
(0.5705 0.4125 -0.005)
(0.5895 0.4125 -0.005)
(0.6085 0.4125 -0.005)
(0.6275 0.4125 -0.005)
(0.6465 0.4125 -0.005)
(0.6655 0.4125 -0.005)
(0.2095 0.3875 -0.005)
(0.2285 0.3875 -0.005)
(0.2475 0.3875 -0.005)
(0.2665 0.3875 -0.005)
(0.2855 0.3875 -0.005)
(0.3045 0.3875 -0.005)
(0.3235 0.3875 -0.005)
(0.3425 0.3875 -0.005)
(0.3615 0.3875 -0.005)
(0.3805 0.3875 -0.005)
(0.3995 0.3875 -0.005)
(0.4185 0.3875 -0.005)
(0.4375 0.3875 -0.005)
(0.4565 0.3875 -0.005)
(0.4755 0.3875 -0.005)
(0.4945 0.3875 -0.005)
(0.5135 0.3875 -0.005)
(0.5325 0.3875 -0.005)
(0.5515 0.3875 -0.005)
(0.5705 0.3875 -0.005)
(0.5895 0.3875 -0.005)
(0.6085 0.3875 -0.005)
(0.6275 0.3875 -0.005)
(0.6465 0.3875 -0.005)
(0.6655 0.3875 -0.005)
(0.2095 0.3625 -0.005)
(0.2285 0.3625 -0.005)
(0.2475 0.3625 -0.005)
(0.2665 0.3625 -0.005)
(0.2855 0.3625 -0.005)
(0.3045 0.3625 -0.005)
(0.3235 0.3625 -0.005)
(0.3425 0.3625 -0.005)
(0.3615 0.3625 -0.005)
(0.3805 0.3625 -0.005)
(0.3995 0.3625 -0.005)
(0.4185 0.3625 -0.005)
(0.4375 0.3625 -0.005)
(0.4565 0.3625 -0.005)
(0.4755 0.3625 -0.005)
(0.4945 0.3625 -0.005)
(0.5135 0.3625 -0.005)
(0.5325 0.3625 -0.005)
(0.5515 0.3625 -0.005)
(0.5705 0.3625 -0.005)
(0.5895 0.3625 -0.005)
(0.6085 0.3625 -0.005)
(0.6275 0.3625 -0.005)
(0.6465 0.3625 -0.005)
(0.6655 0.3625 -0.005)
(0.2095 0.3375 -0.005)
(0.2285 0.3375 -0.005)
(0.2475 0.3375 -0.005)
(0.2665 0.3375 -0.005)
(0.2855 0.3375 -0.005)
(0.3045 0.3375 -0.005)
(0.3235 0.3375 -0.005)
(0.3425 0.3375 -0.005)
(0.3615 0.3375 -0.005)
(0.3805 0.3375 -0.005)
(0.3995 0.3375 -0.005)
(0.4185 0.3375 -0.005)
(0.4375 0.3375 -0.005)
(0.4565 0.3375 -0.005)
(0.4755 0.3375 -0.005)
(0.4945 0.3375 -0.005)
(0.5135 0.3375 -0.005)
(0.5325 0.3375 -0.005)
(0.5515 0.3375 -0.005)
(0.5705 0.3375 -0.005)
(0.5895 0.3375 -0.005)
(0.6085 0.3375 -0.005)
(0.6275 0.3375 -0.005)
(0.6465 0.3375 -0.005)
(0.6655 0.3375 -0.005)
(0.2095 0.3125 -0.005)
(0.2285 0.3125 -0.005)
(0.2475 0.3125 -0.005)
(0.2665 0.3125 -0.005)
(0.2855 0.3125 -0.005)
(0.3045 0.3125 -0.005)
(0.3235 0.3125 -0.005)
(0.3425 0.3125 -0.005)
(0.3615 0.3125 -0.005)
(0.3805 0.3125 -0.005)
(0.3995 0.3125 -0.005)
(0.4185 0.3125 -0.005)
(0.4375 0.3125 -0.005)
(0.4565 0.3125 -0.005)
(0.4755 0.3125 -0.005)
(0.4945 0.3125 -0.005)
(0.5135 0.3125 -0.005)
(0.5325 0.3125 -0.005)
(0.5515 0.3125 -0.005)
(0.5705 0.3125 -0.005)
(0.5895 0.3125 -0.005)
(0.6085 0.3125 -0.005)
(0.6275 0.3125 -0.005)
(0.6465 0.3125 -0.005)
(0.6655 0.3125 -0.005)
(0.2095 0.2875 -0.005)
(0.2285 0.2875 -0.005)
(0.2475 0.2875 -0.005)
(0.2665 0.2875 -0.005)
(0.2855 0.2875 -0.005)
(0.3045 0.2875 -0.005)
(0.3235 0.2875 -0.005)
(0.3425 0.2875 -0.005)
(0.3615 0.2875 -0.005)
(0.3805 0.2875 -0.005)
(0.3995 0.2875 -0.005)
(0.4185 0.2875 -0.005)
(0.4375 0.2875 -0.005)
(0.4565 0.2875 -0.005)
(0.4755 0.2875 -0.005)
(0.4945 0.2875 -0.005)
(0.5135 0.2875 -0.005)
(0.5325 0.2875 -0.005)
(0.5515 0.2875 -0.005)