/*--------------------------------*- C++ -*----------------------------------*\
| =========                 |                                                 |
| \\      /  F ield         | OpenFOAM: The Open Source CFD Toolbox           |
|  \\    /   O peration     | Version:  v2012                                 |
|   \\  /    A nd           | Website:  www.openfoam.com                      |
|    \\/     M anipulation  |                                                 |
\*---------------------------------------------------------------------------*/
FoamFile
{
    version     2.0;
    format      ascii;
    class       volScalarField;
    location    "503";
    object      k;
}
// * * * * * * * * * * * * * * * * * * * * * * * * * * * * * * * * * * * * * //

dimensions      [0 2 -2 0 0 0 0];


internalField   nonuniform List<scalar> 
6556
(
2.14521
2.7151
2.82203
2.85087
2.86542
2.86542
2.85087
2.82203
2.7151
2.14521
1.17039
1.89408
2.0983
2.16537
2.18734
2.18734
2.16537
2.0983
1.89408
1.17039
0.733674
1.38011
1.60951
1.69816
1.72859
1.72859
1.69816
1.60951
1.38011
0.733674
0.506688
1.04785
1.26919
1.36548
1.40143
1.40143
1.36548
1.26919
1.04785
0.506688
0.37463
0.823664
1.02518
1.12062
1.15878
1.15878
1.12062
1.02518
0.823665
0.37463
0.290908
0.666039
0.84528
0.935496
0.973415
0.973415
0.935497
0.845281
0.66604
0.290909
0.234206
0.551085
0.709208
0.792337
0.828538
0.828539
0.792338
0.709209
0.551087
0.234207
0.193775
0.464577
0.6039
0.679459
0.713199
0.713199
0.67946
0.603902
0.46458
0.193776
0.163752
0.397715
0.520732
0.588946
0.619948
0.619949
0.588948
0.520735
0.397718
0.163753
0.140719
0.344851
0.453875
0.515291
0.543553
0.543555
0.515294
0.453879
0.344855
0.14072
0.122576
0.302241
0.399289
0.454572
0.480237
0.480239
0.454576
0.399294
0.302248
0.122578
0.107972
0.267327
0.354112
0.40394
0.427216
0.427218
0.403946
0.35412
0.267335
0.107974
0.0960005
0.238309
0.316276
0.361286
0.382403
0.382406
0.361294
0.316286
0.23832
0.0960043
0.0860375
0.213894
0.284252
0.325023
0.344208
0.344212
0.325033
0.284267
0.21391
0.0860427
0.0776375
0.193133
0.256895
0.293937
0.311404
0.31141
0.293951
0.256915
0.193154
0.0776446
0.0704761
0.17531
0.233329
0.26709
0.283032
0.28304
0.26711
0.233357
0.175339
0.0704856
0.0643111
0.159884
0.212878
0.243746
0.258336
0.258347
0.243774
0.212915
0.159921
0.0643235
0.0589585
0.146431
0.195008
0.22332
0.236712
0.236726
0.223359
0.195057
0.146477
0.0589742
0.0542761
0.13462
0.179298
0.205345
0.217673
0.217693
0.2054
0.179366
0.134674
0.0542949
0.050152
0.124187
0.165408
0.189443
0.200824
0.200853
0.189518
0.165493
0.124209
0.0501717
0.0464973
0.114918
0.153062
0.175303
0.185843
0.185883
0.175412
0.153194
0.115017
0.0468123
0.0432399
0.10664
0.142033
0.162672
0.172461
0.172517
0.162826
0.142235
0.106851
0.0449644
0.0403214
0.0992093
0.132134
0.151338
0.160457
0.160532
0.151547
0.132426
0.0996524
0.0443312
0.0376936
0.0925085
0.123212
0.141125
0.149643
0.14974
0.141391
0.123569
0.0933703
0.0449186
0.0353164
0.0864391
0.115135
0.131884
0.139864
0.139981
0.132187
0.115556
0.0880235
0.0467643
0.0331564
0.0809184
0.107795
0.123492
0.130988
0.131124
0.123824
0.108376
0.083614
0.0496664
0.0311855
0.0758764
0.101099
0.115844
0.122904
0.12307
0.116273
0.102014
0.0799891
0.0532747
0.0293797
0.0712532
0.094968
0.108848
0.11552
0.115732
0.10945
0.0963998
0.0771052
0.0572214
0.0277186
0.0669978
0.0893336
0.102428
0.108756
0.109033
0.10328
0.0914591
0.0748614
0.0607422
0.0261843
0.0630661
0.0841377
0.096519
0.102543
0.102906
0.0976977
0.0871167
0.0731202
0.0634363
0.0247617
0.0594196
0.0793296
0.0910625
0.0968221
0.0972918
0.0926401
0.0832974
0.0717479
0.0654056
0.0234373
0.0560245
0.0748652
0.0860089
0.0915406
0.0921375
0.0880497
0.0799189
0.0705496
0.0667286
0.0221994
0.0528516
0.0707059
0.0813147
0.0866526
0.0873951
0.0838715
0.0768982
0.069433
0.0674808
0.0210375
0.049875
0.0668176
0.0769413
0.0821171
0.0830209
0.0800543
0.0741658
0.0683291
0.0677256
0.0199423
0.047072
0.0631703
0.0728548
0.0778978
0.0789755
0.0765511
0.0716606
0.0671842
0.067513
0.0189056
0.0444221
0.0597372
0.0690251
0.073962
0.0752233
0.0733192
0.06933
0.0659597
0.0668851
0.0179199
0.0419075
0.0564949
0.0654253
0.0702808
0.0717321
0.070321
0.0671305
0.0646326
0.0658836
0.0169783
0.0395125
0.0534223
0.0620316
0.0668283
0.0684735
0.0675239
0.0650293
0.0631952
0.0645539
0.016075
0.037223
0.0505007
0.058823
0.0635816
0.0654224
0.0649011
0.0630041
0.0616558
0.0629522
0.0152042
0.0350268
0.0477134
0.0557802
0.06052
0.0625569
0.0624312
0.0610434
0.0600372
0.061147
0.0143611
0.0329133
0.0450452
0.0528858
0.0576244
0.0598577
0.0600975
0.0591446
0.0583737
0.0592182
0.0135413
0.0308736
0.042482
0.0501227
0.0548769
0.0573066
0.0578867
0.0573114
0.0567071
0.0572524
0.0127407
0.0288995
0.0400102
0.0474742
0.0522586
0.0548857
0.0557867
0.05555
0.0550796
0.0553355
0.0119557
0.026984
0.037616
0.0449219
0.0497492
0.0525748
0.0537834
0.0538634
0.0535261
0.0535421
0.0111832
0.0251203
0.035285
0.0424456
0.0473247
0.0503495
0.0518572
0.0522465
0.0520664
0.051924
0.01042
0.0233019
0.0330015
0.0400216
0.0449563
0.0481791
0.0499804
0.0506811
0.0506983
0.0505
0.0096632
0.0215223
0.0307481
0.0376223
0.0426091
0.0460244
0.0481137
0.0491324
0.0493932
0.0492495
0.0089098
0.019775
0.0285061
0.035216
0.0402411
0.043837
0.0462054
0.0475473
0.0480952
0.0481108
0.00815646
0.0180535
0.0262551
0.0327668
0.0378038
0.0415589
0.044191
0.0458554
0.0467235
0.0469862
0.00739922
0.0163511
0.0239747
0.0302365
0.0352434
0.0391248
0.041996
0.0439724
0.0451786
0.0457516
0.00663291
0.0146612
0.021645
0.0275871
0.0325055
0.0364665
0.0395409
0.0418068
0.0433514
0.0442703
0.00584999
0.0129759
0.0192537
0.0247904
0.0295442
0.033523
0.0367513
0.0392708
0.0411357
0.0424092
0.00503881
0.0112737
0.01679
0.0218371
0.0263398
0.0302592
0.0335769
0.0362983
0.0384474
0.0400581
0.0041658
0.00965258
0.0143177
0.0187701
0.0229219
0.0266912
0.0300181
0.0328721
0.0352459
0.0371486
0.00323801
0.00825279
0.0120874
0.0158197
0.0194741
0.022961
0.0261819
0.0290658
0.0315754
0.0336891
0.00227204
0.0069899
0.0102715
0.0133211
0.0163749
0.0194199
0.0223666
0.0251262
0.0276294
0.0298292
0.00121804
0.00556279
0.00867813
0.0113479
0.0139216
0.0164971
0.0190527
0.0215223
0.02384
0.0259495
0.000893342
0.00379672
0.0069306
0.00958535
0.0119981
0.0142881
0.0164908
0.0185923
0.0205693
0.0223927
0.000844117
0.00219343
0.0051083
0.00768827
0.0101052
0.0122311
0.0141431
0.0158462
0.0173722
0.0187398
0.000950107
0.00169363
0.0026188
0.00391018
0.00537097
0.00648091
0.00738382
0.00817209
0.00884714
0.00941716
0.00978911
0.003403
0.00350321
0.00372431
0.00390781
0.00402215
0.0040575
0.00400696
0.00385349
0.00367188
0.00346161
0.00322505
0.00296809
0.00270384
0.00244006
0.00218139
0.0019263
0.00170364
0.00150165
0.00131191
0.00112888
0.000947423
0.000761158
0.000559995
0.000309409
0.0188889
0.00842656
0.00746557
0.00762739
0.0078964
0.00808785
0.00813982
0.00802449
0.00771006
0.00726204
0.0067565
0.00622269
0.00568295
0.00515957
0.00466607
0.00420769
0.00378116
0.00335433
0.00293047
0.00251338
0.00211027
0.00173154
0.00139674
0.00109544
0.000572637
0.028098
0.0138148
0.0105944
0.00995591
0.00988148
0.00984814
0.00971006
0.0094267
0.0089659
0.0083383
0.00766374
0.00698796
0.00633251
0.00571638
0.0051548
0.00465332
0.00420608
0.00378814
0.00338377
0.00297955
0.00256543
0.00214277
0.00173435
0.00134941
0.000686031
0.038122
0.0207209
0.0143016
0.0123648
0.0115967
0.0111029
0.0106083
0.0100387
0.00936334
0.00858103
0.00777126
0.00700753
0.00629528
0.00564775
0.00507819
0.0045885
0.00416896
0.00379589
0.0034468
0.00309978
0.00273263
0.00233154
0.00190367
0.00145807
0.000729945
0.0479842
0.0296239
0.0193824
0.0153462
0.0135281
0.0123615
0.0113841
0.0104456
0.00950804
0.00857496
0.00765651
0.00680535
0.00604209
0.00537485
0.00481047
0.00434477
0.00396268
0.00363888
0.00334609
0.0030579
0.00274628
0.00238685
0.00197037
0.00149178
0.000732444
0.0554497
0.0388417
0.0256287
0.0190714
0.0159014
0.0138844
0.0122999
0.0109258
0.00968285
0.0085532
0.00752823
0.0065946
0.00577376
0.00507704
0.0045086
0.00405879
0.00370769
0.00342674
0.00318272
0.00294513
0.00268286
0.00236573
0.00197286
0.0014825
0.000711752
0.0606877
0.0478483
0.0327843
0.023685
0.0188409
0.0157928
0.0135146
0.0116287
0.0100227
0.00865337
0.00748032
0.0064695
0.00559706
0.00484703
0.00425386
0.0038002
0.00346425
0.00321362
0.00300719
0.00280936
0.00258638
0.00230492
0.00193663
0.00144673
0.000678091
0.0645915
0.0551308
0.0399184
0.0291276
0.0224836
0.0181887
0.0150592
0.0125963
0.0105868
0.00893487
0.00757412
0.00645022
0.00551194
0.00472546
0.00408768
0.00360344
0.00325989
0.00302374
0.00284286
0.002674
0.00248025
0.00222614
0.00187841
0.00139433
0.000635858
0.0675503
0.0610164
0.0466934
0.0349621
0.0266951
0.021094
0.0170018
0.013851
0.0113606
0.00939301
0.00782541
0.00656189
0.00553507
0.0046886
0.0039955
0.00346581
0.00310132
0.00286546
0.00269728
0.00254712
0.00237406
0.00214055
0.00180926
0.00133257
0.000589922
0.0697352
0.0655759
0.0529632
0.0407426
0.0312392
0.0244076
0.0193259
0.0154267
0.01239
0.0100486
0.00822773
0.00680022
0.00566744
0.00474426
0.00398054
0.00338409
0.0029743
0.00272365
0.00256023
0.00242292
0.0022654
0.00204791
0.0017304
0.0012627
0.000549197
0.0712776
0.0690243
0.0584586
0.0462641
0.0359262
0.0280027
0.0219574
0.0173099
0.013715
0.0109463
0.00882084
0.00718145
0.00591413
0.00490305
0.00405891
0.00337347
0.00288557
0.00259235
0.00242369
0.00229483
0.00215051
0.00194729
0.00164275
0.00118513
0.000510453
0.0722993
0.0715621
0.0630068
0.0513589
0.0406714
0.0317508
0.0248121
0.0194548
0.0153151
0.0121079
0.00965836
0.00775013
0.00630623
0.00519313
0.0042677
0.00347538
0.00286851
0.00248862
0.00228816
0.00215821
0.0020248
0.00183663
0.00154761
0.00110371
0.000472233
0.0728394
0.073282
0.066497
0.0558711
0.0449908
0.0354328
0.0277782
0.0218049
0.0171785
0.0135788
0.010766
0.00857495
0.00690314
0.0056488
0.00464648
0.00374984
0.00299277
0.00246327
0.00217125
0.00201632
0.00188734
0.00171615
0.00145053
0.00103108
0.000434905
0.0729057
0.0742482
0.0690326
0.0595977
0.048831
0.0389618
0.0307755
0.0243067
0.0192766
0.0153447
0.0122322
0.00974343
0.00779481
0.00632883
0.00521373
0.00425501
0.00335841
0.00262748
0.0021453
0.00189716
0.00175188
0.00159883
0.00136826
0.000994494
0.000402596
0.0724997
0.0745041
0.0706634
0.0624603
0.0521781
0.0423111
0.0337386
0.0269053
0.0215788
0.0174024
0.0140625
0.0113279
0.00910164
0.00734804
0.00601548
0.00497064
0.00402894
0.00314465
0.00242802
0.00194372
0.00169687
0.001543
0.00136445
0.00107114
0.000513765
0.0716287
0.0740969
0.0714284
0.0644285
0.0549727
0.0452303
0.0365749
0.0295409
0.0240406
0.0197204
0.0162519
0.0133684
0.0109347
0.00889513
0.00723119
0.00592026
0.00487642
0.003968
0.00316149
0.00248391
0.00196865
0.00167423
0.0014786
0.0012578
0.0010487
0.0703166
0.0730783
0.0714225
0.0656096
0.0571772
0.0478005
0.0393135
0.0321872
0.0266259
0.0222559
0.0187457
0.0158505
0.0133667
0.011168
0.00918756
0.00747629
0.00604154
0.00490078
0.00401876
0.00333801
0.00286644
0.0025728
0.00247218
0.00254943
0.00275583
0.0685974
0.0714908
0.0706888
0.0660284
0.058683
0.0500759
0.0418118
0.034813
0.0292474
0.0249516
0.0215355
0.0187232
0.0163412
0.0142082
0.0121698
0.0101795
0.00829038
0.00661159
0.00522205
0.00419717
0.00354843
0.0032385
0.00319196
0.00329465
0.00352599
0.0665271
0.0694036
0.0692929
0.0657326
0.0595278
0.0519315
0.0441025
0.0373193
0.0318526
0.0276564
0.0244338
0.021853
0.0197015
0.0178082
0.0160037
0.0141595
0.0122383
0.0102936
0.00845812
0.00688697
0.00572328
0.00503031
0.00476153
0.00476869
0.00496671
0.0641839
0.0669034
0.0673163
0.0647594
0.0597109
0.0531804
0.0462191
0.0396886
0.0343994
0.030305
0.0272118
0.024879
0.0230473
0.0215159
0.0201141
0.0187118
0.0172025
0.0155456
0.0137678
0.0119678
0.0103011
0.00893696
0.00800135
0.00751514
0.00736186
0.0616666
0.0640999
0.0648593
0.0631782
0.059255
0.0538263
0.0477952
0.0419558
0.0368269
0.0328789
0.0299074
0.0276902
0.0260845
0.0248708
0.0238732
0.0229594
0.0220145
0.0209461
0.0196927
0.0182575
0.0166963
0.0151097
0.0136138
0.0124485
0.0116497
0.0590896
0.0611253
0.0620472
0.0610753
0.0581837
0.0538615
0.0488091
0.043723
0.0391319
0.0353458
0.0324689
0.0303948
0.0288941
0.0278495
0.0271037
0.0265224
0.0260039
0.0254519
0.0247707
0.0239018
0.0228333
0.0215844
0.0201927
0.0188072
0.0175922
0.0565745
0.05813
0.059033
0.0585707
0.0565642
0.0532827
0.0492325
0.0449672
0.0409687
0.0375629
0.0348781
0.0328914
0.0315084
0.0305813
0.029962
0.029568
0.0292901
0.0290423
0.028735
0.0282899
0.0276657
0.0268501
0.025853
0.0246963
0.0235334
0.0542366
0.0552712
0.055995
0.0558237
0.0545047
0.0521331
0.0490339
0.0456207
0.042287
0.0393358
0.0369369
0.0351311
0.0338741
0.0330603
0.0325618
0.0322628
0.0321157
0.032048
0.0319747
0.0318249
0.0315406
0.0310938
0.0304784
0.0296994
0.0287898
0.0521685
0.0526944
0.0531221
0.0530308
0.0521678
0.0505159
0.0482494
0.0456464
0.0430043
0.040578
0.0385419
0.036976
0.035878
0.0351818
0.03479
0.0346085
0.0345656
0.0346126
0.0347117
0.0347851
0.0347724
0.0346355
0.0343569
0.0339306
0.0333603
0.0504229
0.0505094
0.0505887
0.0504069
0.0497668
0.0486035
0.0469876
0.0450828
0.043092
0.0412082
0.0395825
0.0383079
0.0374106
0.036855
0.0365715
0.0364808
0.0365501
0.0367356
0.0369731
0.0372169
0.0374244
0.0375499
0.0375655
0.0374667
0.0372403
0.0489998
0.0487665
0.0485199
0.0481485
0.0475381
0.0466299
0.0454428
0.0440608
0.0426062
0.0412097
0.0399871
0.0390213
0.0383484
0.0379545
0.0377876
0.0377911
0.0379508
0.0382353
0.0386018
0.0390033
0.0393929
0.0397385
0.0400146
0.0402018
0.0402849
0.0478411
0.0474403
0.0469586
0.0463863
0.0456904
0.0448496
0.0438733
0.0428051
0.0417142
0.0406815
0.0397848
0.0390856
0.0386175
0.0383779
0.0383263
0.0384153
0.0386393
0.0389814
0.0394172
0.039916
0.0404434
0.0409659
0.0414511
0.0418773
0.0422278
0.046835
0.0464275
0.0458478
0.0451442
0.0443437
0.0434665
0.0425379
0.0415941
0.0406808
0.0398486
0.039146
0.0386133
0.0382754
0.0381342
0.0381665
0.0383093
0.0385637
0.0389193
0.0393631
0.0398782
0.0404443
0.0410383
0.0416365
0.0422165
0.0427558
0.0458299
0.0455615
0.0450355
0.044323
0.0434814
0.0425611
0.0416096
0.0406721
0.0397917
0.0390082
0.038356
0.0378618
0.0375423
0.0374013
0.0374262
0.0375798
0.0378131
0.0381301
0.0385222
0.0389794
0.039491
0.0400443
0.040625
0.0412177
0.0418048
0.0446542
0.0446389
0.0443032
0.0437168
0.0429457
0.0420543
0.0411032
0.0401483
0.0392386
0.0384154
0.0377113
0.0371497
0.0367448
0.0365013
0.0364153
0.03647
0.0366352
0.0368666
0.0371546
0.0374975
0.0378885
0.0383199
0.0387835
0.0392708
0.0397705
0.0431398
0.0434501
0.0434036
0.0430589
0.0424775
0.0417227
0.0408571
0.0399406
0.0390267
0.038161
0.0373797
0.0367094
0.0361673
0.0357618
0.0354943
0.0353596
0.0353455
0.0354297
0.0355913
0.0357964
0.0360347
0.0363043
0.0366023
0.0369251
0.0372648
0.0411399
0.0418048
0.042101
0.0420743
0.0417749
0.0412572
0.040578
0.0397933
0.038956
0.038113
0.0373033
0.0365578
0.0358983
0.0353389
0.0348868
0.0345437
0.0343064
0.0341675
0.0341158
0.0341343
0.034209
0.0343278
0.034473
0.0346316
0.0348019
0.0385506
0.0395576
0.0402046
0.0405242
0.0405546
0.0403387
0.0399234
0.039357
0.0386869
0.0379571
0.0372063
0.0364669
0.0357644
0.0351173
0.0345382
0.0340346
0.0336097
0.0332631
0.0329918
0.0327897
0.0326495
0.0325629
0.0325188
0.0325068
0.03252
0.0353459
0.0366446
0.0376071
0.0382543
0.0386128
0.0387147
0.0385964
0.0382972
0.0378567
0.0373136
0.0367032
0.0360566
0.0354001
0.0347546
0.0341361
0.0335561
0.0330224
0.0325395
0.0321094
0.0317319
0.0314054
0.0311263
0.0308904
0.0306925
0.0305284
0.0316342
0.0331315
0.0343302
0.0352397
0.0358761
0.0362611
0.0364217
0.0363882
0.0361927
0.0358673
0.0354423
0.0349459
0.0344026
0.0338335
0.0332556
0.0326828
0.0321252
0.0315906
0.0310841
0.0306091
0.0301673
0.029759
0.0293838
0.0290404
0.0287283
0.0277415
0.0292879
0.0305845
0.0316296
0.0324314
0.0330041
0.0333659
0.0335389
0.0335475
0.0334169
0.0331717
0.0328356
0.0324302
0.0319744
0.0314849
0.0309753
0.0304571
0.0299391
0.0294283
0.0289299
0.0284475
0.0279838
0.0275403
0.027118
0.0267188
0.0239707
0.0253696
0.0265828
0.0276032
0.0284165
0.0290285
0.0294563
0.0297172
0.0298296
0.0298125
0.029685
0.0294656
0.0291716
0.0288188
0.0284214
0.0279916
0.0275399
0.0270749
0.0266037
0.0261319
0.0256641
0.0252037
0.024753
0.0243143
0.0238904
0.0199019
0.0209226
0.0217947
0.0225147
0.0230901
0.0235263
0.0238332
0.0240217
0.0241034
0.0240904
0.0239948
0.0238284
0.0236028
0.0233285
0.0230151
0.0226713
0.0223048
0.021922
0.0215284
0.0211288
0.0207269
0.0203257
0.019928
0.0195356
0.0191514
0.00988543
0.0102979
0.0106554
0.0109531
0.0111959
0.0113869
0.0115292
0.0116262
0.0116812
0.0116978
0.0116797
0.0116308
0.0115547
0.0114551
0.0113355
0.0111992
0.0110492
0.0108883
0.0107191
0.0105436
0.010364
0.010182
0.00999892
0.00981609
0.00963461
0.000479065
0.000510799
0.00182882
0.00226714
0.00257668
0.00259881
0.00302908
0.0031213
0.00347879
0.00381639
0.0041784
0.00472435
0.00526938
0.00564251
0.00610663
0.00744094
0.0076275
0.00787864
0.0111768
0.0109393
0.0108367
0.0166311
0.0159302
0.0154019
0.0224838
0.0215993
0.0208282
0.0278929
0.0270597
0.0262558
0.0327117
0.0320519
0.0313546
0.0369098
0.0365008
0.0360153
0.0402594
0.040147
0.0399442
0.042474
0.0426337
0.0427141
0.0432025
0.0435869
0.04392
0.0423267
0.0428203
0.043289
0.0402303
0.0406855
0.0411413
0.0375841
0.0379091
0.038244
0.0349653
0.0351355
0.0353153
0.0325497
0.0325932
0.0326488
0.0304056
0.0303038
0.0302187
0.0284723
0.0282386
0.028022
0.0263798
0.0260596
0.0257528
0.0235245
0.0231721
0.0228288
0.0188174
0.0184918
0.0181723
0.00947677
0.00932156
0.0091689
0.000114325
0.000240208
0.000384956
0.000509847
0.000622293
0.000723235
0.000816569
0.000903945
0.000986481
0.00106492
0.00113977
0.00121143
0.00128023
0.00134642
0.00141026
0.00147198
0.00153179
0.00158989
0.0016465
0.0017018
0.00175599
0.00180928
0.00186187
0.00191396
0.00196576
0.00201749
0.00206936
0.00212161
0.00217448
0.00222823
0.00228313
0.00233947
0.00239759
0.00245784
0.00252064
0.00258646
0.00265585
0.00272949
0.00280816
0.00289287
0.00298434
0.0030802
0.00318052
0.00328546
0.00339515
0.0035099
0.00362996
0.00375556
0.00388689
0.00402408
0.00416721
0.00431625
0.00447107
0.00463137
0.0047966
0.00496591
0.00513801
0.00531104
0.00548231
0.00564805
0.00580304
0.00594014
0.00604981
0.00612006
0.00613947
0.00610041
0.00600222
0.00584365
0.00562156
0.00532806
0.00496197
0.00451488
0.0040043
0.003461
0.00291695
0.00244716
0.00201869
0.00161179
0.0012015
0.00071943
0.000391525
0.000747439
0.000955596
0.00114214
0.0013456
0.0015624
0.00178097
0.00199992
0.00221686
0.00242986
0.00263739
0.00283845
0.00303248
0.00321927
0.00339886
0.00357145
0.00373733
0.00389688
0.00405048
0.00419859
0.00434163
0.00448009
0.00461443
0.00474514
0.00487273
0.00499769
0.00512056
0.00524185
0.00536211
0.00548189
0.00560175
0.00572226
0.00584402
0.00596762
0.00609367
0.0062228
0.00635565
0.00649286
0.00663497
0.00678268
0.00693726
0.00710218
0.00727538
0.00745688
0.00764714
0.00784672
0.00805619
0.00827611
0.00850699
0.00874927
0.00900326
0.00926915
0.00954685
0.00983598
0.0101357
0.0104445
0.0107601
0.0110791
0.0113963
0.0117046
0.011994
0.0122504
0.0124557
0.0125892
0.0126308
0.0125773
0.0123953
0.0120634
0.0115653
0.0108441
0.00998101
0.00898137
0.00791572
0.00683508
0.005751
0.00465823
0.00363377
0.00274597
0.00201539
0.0010452
0.000584736
0.0011273
0.00138585
0.00164978
0.0019575
0.00228941
0.00262808
0.0029649
0.0032934
0.00360985
0.00391244
0.00420068
0.00447491
0.00473585
0.00498438
0.00522138
0.00544768
0.00566403
0.00587109
0.0060695
0.00625982
0.0064426
0.00661837
0.00678767
0.00695101
0.00710894
0.00726201
0.00741078
0.00755584
0.00769779
0.00783727
0.00797493
0.00811145
0.00824755
0.00838394
0.00852139
0.00866069
0.00880266
0.00894807
0.00909773
0.00925246
0.00941383
0.00958451
0.00976349
0.00995101
0.0101477
0.0103542
0.0105712
0.0107995
0.0110396
0.0112919
0.0115566
0.0118336
0.0121223
0.0124217
0.0127298
0.0130438
0.0133595
0.0136711
0.0139705
0.0142476
0.0144888
0.0146771
0.0147915
0.0148033
0.014699
0.0144567
0.0140537
0.0134671
0.01268
0.0116891
0.0104699
0.00917886
0.00785988
0.00659701
0.00538627
0.00424744
0.00320097
0.00228287
0.00112892
0.000716448
0.00142167
0.001756
0.00210531
0.00250686
0.00293328
0.00336271
0.0037819
0.00418369
0.00456519
0.0049261
0.00526758
0.00559131
0.00589906
0.0061924
0.00647262
0.00674077
0.00699765
0.00724391
0.00748007
0.00770658
0.00792384
0.00813224
0.00833216
0.00852398
0.00870814
0.00888505
0.00905518
0.00921904
0.00937716
0.00953009
0.00967846
0.0098229
0.00996412
0.0101028
0.0102398
0.0103759
0.0105119
0.0106487
0.0107873
0.0109285
0.0110733
0.0112243
0.0113826
0.011548
0.0117208
0.0119018
0.0120917
0.0122911
0.0125006
0.0127204
0.0129508
0.0131913
0.0134413
0.0136993
0.0139632
0.0142296
0.0144943
0.0147512
0.0149928
0.0152095
0.0153898
0.0155196
0.0155823
0.0155542
0.0154128
0.0151443
0.014731
0.0141528
0.013393
0.0124436
0.011278
0.0099315
0.00843766
0.00701723
0.0057003
0.00450781
0.00339519
0.00235439
0.00110832
0.000813019
0.00164695
0.00207805
0.00251533
0.00299825
0.00349764
0.00398967
0.00446158
0.00490812
0.0053288
0.00572555
0.00610116
0.00645845
0.00679982
0.00712716
0.00744182
0.00774474
0.00803653
0.00831758
0.00858815
0.0088484
0.00909848
0.00933852
0.00956867
0.00978911
0.0100001
0.0102018
0.0103946
0.0105788
0.0107548
0.0109231
0.0110842
0.0112386
0.011387
0.01153
0.0116683
0.0118028
0.0119342
0.0120636
0.0121918
0.0123198
0.0124488
0.0125797
0.0127161
0.0128577
0.0130047
0.0131579
0.0133179
0.0134853
0.0136606
0.0138442
0.0140361
0.0142358
0.0144425
0.0146546
0.0148699
0.0150849
0.0152952
0.015495
0.0156771
0.0158326
0.0159509
0.0160196
0.0160246
0.0159506
0.0157831
0.0155099
0.0151187
0.0145929
0.0139183
0.0130647
0.012004
0.0107246
0.00925176
0.00768629
0.00614353
0.0047793
0.00354878
0.00237345
0.00104278
0.000884229
0.0018313
0.00236458
0.00288434
0.00343349
0.00398441
0.0045156
0.00501754
0.00548862
0.00593128
0.00634958
0.00674765
0.00712905
0.00749647
0.00785177
0.00819613
0.00853017
0.00885415
0.00916809
0.00947188
0.00976532
0.0100482
0.0103205
0.0105818
0.0108324
0.011072
0.0113008
0.0115189
0.0117264
0.0119237
0.012111
0.0122887
0.0124572
0.012617
0.0127688
0.0129132
0.0130509
0.0131827
0.0133096
0.0134326
0.0135527
0.0136709
0.0137886
0.0139074
0.01403
0.0141564
0.0142872
0.014423
0.0145646
0.0147126
0.0148675
0.0150293
0.0151978
0.0153721
0.0155509
0.0157317
0.0159115
0.0160858
0.016249
0.0163939
0.0165119
0.0165926
0.0166242
0.0165933
0.0164866
0.0162929
0.0160048
0.0156183
0.0151296
0.0145311
0.0138013
0.0128978
0.0117646
0.0103559
0.00869949
0.00694356
0.00529327
0.00382553
0.0024343
0.00096056
0.000941517
0.00199206
0.00262308
0.00321445
0.00381322
0.00439635
0.00494771
0.00546284
0.00594419
0.00639709
0.00682736
0.00724013
0.00763932
0.00802766
0.00840679
0.00877751
0.00914006
0.00949423
0.00983961
0.0101757
0.0105018
0.0108175
0.0111223
0.0114157
0.0116975
0.0119673
0.0122251
0.0124708
0.0127044
0.012926
0.0131357
0.0133337
0.0135204
0.0136962
0.0138616
0.014017
0.0141632
0.0143011
0.0144313
0.0145551
0.0146734
0.0147875
0.0148985
0.0150078
0.0151188
0.015232
0.0153483
0.0154685
0.0155936
0.0157245
0.0158617
0.0160059
0.0161569
0.0163144
0.0164772
0.0166434
0.0168101
0.0169731
0.0171269
0.0172645
0.017377
0.0174538
0.0174826
0.0174498
0.0173412
0.0171442
0.0168504
0.0164577
0.0159698
0.0153936
0.0147297
0.0139538
0.0129972
0.0117425
0.0100952
0.00811389
0.00605689
0.00424357
0.00256797
0.000912866
0.000993359
0.00214047
0.00285945
0.00350893
0.00414081
0.00473936
0.00529581
0.00581141
0.00629263
0.0067473
0.00718268
0.00760448
0.00801678
0.00842208
0.00882169
0.00921594
0.00960457
0.00998691
0.0103621
0.0107291
0.011087
0.0114348
0.0117719
0.0120974
0.0124108
0.0127117
0.0129996
0.0132744
0.0135359
0.013784
0.0140187
0.0142401
0.0144484
0.0146439
0.0148269
0.0149978
0.0151574
0.0153063
0.0154453
0.0155756
0.0156982
0.0158145
0.0159257
0.0160334
0.0161393
0.0162467
0.0163562
0.016469
0.0165862
0.0167092
0.0168391
0.0169766
0.0171223
0.0172763
0.017438
0.0176061
0.0177782
0.0179506
0.0181183
0.0182745
0.0184103
0.0185149
0.0185751
0.0185758
0.0185006
0.0183328
0.0180583
0.0176679
0.0171652
0.016562
0.0158812
0.015135
0.0142934
0.0132364
0.0117591
0.00970261
0.00720506
0.00485025
0.00278274
0.000896155
0.00104584
0.00228617
0.0030811
0.0037739
0.00442309
0.00502247
0.00557167
0.00607776
0.00655087
0.00700094
0.0074362
0.00786268
0.00828432
0.00870327
0.00912035
0.0095354
0.00994761
0.0103558
0.0107587
0.0111548
0.0115428
0.0119215
0.0122898
0.0126466
0.0129913
0.013323
0.0136413
0.0139458
0.0142361
0.014512
0.0147734
0.0150203
0.0152526
0.0154706
0.0156744
0.0158645
0.0160413
0.0162055
0.016358
0.0164996
0.0166317
0.0167555
0.0168726
0.0169844
0.0170925
0.0172005
0.0173098
0.0174218
0.0175383
0.0176606
0.0177905
0.0179294
0.0180782
0.0182377
0.018408
0.0185886
0.0187777
0.0189726
0.019169
0.0193606
0.0195393
0.0196942
0.019812
0.0198766
0.0198693
0.0197695
0.0195574
0.0192073
0.0187165
0.0180852
0.0173375
0.0165129
0.0156435
0.0146879
0.0134575
0.0115911
0.00892627
0.00584472
0.00318791
0.000922494
0.00110466
0.00244018
0.0032984
0.00401904
0.00467013
0.00525716
0.00578857
0.00627696
0.00673564
0.00717611
0.00760718
0.00803484
0.00846266
0.00889229
0.00932398
0.00975702
0.0101901
0.0106215
0.0110495
0.0114724
0.0118883
0.0122958
0.0126935
0.0130801
0.0134547
0.0138164
0.0141645
0.0144983
0.0148175
0.0151216
0.0154105
0.015684
0.0159419
0.0161843
0.0164114
0.0166233
0.0168205
0.0170035
0.017173
0.0173301
0.017476
0.017612
0.0177397
0.0178607
0.0179767
0.0180906
0.018205
0.0183217
0.0184425
0.0185695
0.0187047
0.0188499
0.0190069
0.0191769
0.019361
0.0195591
0.0197708
0.0199941
0.0202257
0.0204605
0.0206913
0.0209083
0.0210989
0.0212469
0.0213329
0.0213339
0.0212237
0.0209745
0.0205625
0.0199646
0.019185
0.0182492
0.0172183
0.0161527
0.0150045
0.0134662
0.0110161
0.00746147
0.00395768
0.00102569
0.00117948
0.00261877
0.00352566
0.00425778
0.00489551
0.00545763
0.00596171
0.0064254
0.00686445
0.00729135
0.00771493
0.00814081
0.00857197
0.00900944
0.00945284
0.00990089
0.0103518
0.0108033
0.0112535
0.0117001
0.0121411
0.0125747
0.0129993
0.0134136
0.0138162
0.0142061
0.0145825
0.0149447
0.0152921
0.0156241
0.0159405
0.0162409
0.0165252
0.0167932
0.017045
0.0172808
0.0175006
0.0177051
0.0178948
0.0180706
0.0182339
0.0183859
0.0185284
0.0186629
0.0187914
0.0189159
0.0190399
0.0191654
0.0192948
0.0194302
0.0195742
0.019729
0.0198969
0.0200798
0.0202794
0.0204967
0.0207319
0.0209843
0.0212517
0.0215305
0.0218148
0.0220964
0.022364
0.0226033
0.0227959
0.022919
0.0229453
0.0228429
0.0225763
0.0221085
0.0214087
0.0204556
0.0192775
0.0179565
0.0165816
0.0151181
0.0131231
0.00989016
0.00528798
0.00124897
0.00128102
0.00284341
0.00377988
0.00450874
0.00511742
0.00564188
0.0061093
0.00654188
0.00695685
0.00736678
0.00778002
0.00820141
0.00863315
0.0090755
0.00952745
0.00998716
0.0104524
0.0109206
0.0113893
0.0118561
0.0123188
0.0127754
0.0132239
0.013663
0.014091
0.014507
0.0149098
0.0152987
0.0156729
0.0160319
0.0163751
0.0167021
0.0170128
0.0173068
0.0175842
0.0178449
0.018089
0.018317
0.0185292
0.0187266
0.0189102
0.0190816
0.0192424
0.0193941
0.0195386
0.0196779
0.0198154
0.0199535
0.0200948
0.0202417
0.020397
0.0205634
0.0207437
0.0209403
0.0211555
0.0213912
0.0216484
0.0219276
0.0222278
0.0225468
0.0228804
0.0232222
0.0235633
0.0238914
0.0241907
0.024441
0.0246174
0.0246889
0.024618
0.0243594
0.0238611
0.0230694
0.0219427
0.0204724
0.0187372
0.0168973
0.0149192
0.0121987
0.00751519
0.00161576
0.00143702
0.00313074
0.00407429
0.00478561
0.00535653
0.00583212
0.00625331
0.00664873
0.00703553
0.00742539
0.00782549
0.00823955
0.00866879
0.00911268
0.00956955
0.0100371
0.0105126
0.0109934
0.0114766
0.0119597
0.0124402
0.012916
0.013385
0.0138456
0.0142962
0.0147355
0.0151623
0.0155758
0.015975
0.0163593
0.0167282
0.017081
0.0174174
0.0177371
0.01804
0.0183261
0.0185954
0.0188481
0.0190846
0.0193058
0.0195125
0.0197061
0.0198882
0.0200603
0.0202242
0.0203819
0.0205362
0.0206901
0.0208461
0.021007
0.0211757
0.0213553
0.0215487
0.021759
0.0219891
0.0222413
0.0225177
0.0228196
0.0231475
0.0235003
0.0238758
0.0242695
0.0246747
0.0250819
0.0254786
0.0258481
0.0261696
0.0264169
0.026557
0.026548
0.0263367
0.0258559
0.0250233
0.023752
0.0219762
0.0197242
0.0171752
0.0143585
0.0106884
0.00234547
0.00165986
0.00358295
0.00445867
0.00511028
0.00562755
0.00605034
0.00641834
0.00677194
0.007127
0.00749374
0.00787765
0.00828107
0.00870414
0.00914555
0.00960306
0.010074
0.0105552
0.0110439
0.0115371
0.012032
0.012526
0.0130169
0.0135026
0.0139811
0.0144508
0.0149104
0.0153585
0.015794
0.0162161
0.0166238
0.0170165
0.0173936
0.0177546
0.0180991
0.0184269
0.0187379
0.0190322
0.0193101
0.0195721
0.0198189
0.020051
0.0202693
0.0204753
0.0206705
0.0208567
0.0210358
0.0212099
0.0213823
0.0215557
0.0217328
0.0219167
0.0221106
0.0223177
0.0225415
0.0227851
0.0230516
0.0233438
0.0236638
0.0240131
0.0243922
0.0248004
0.0252351
0.0256919
0.0261642
0.0266424
0.0271141
0.0275631
0.0279691
0.0283066
0.0285432
0.0286368
0.0285313
0.0281499
0.0273862
0.0260962
0.0241157
0.0213397
0.0178506
0.0139409
0.00938099
0.0022738
0.00412095
0.00492036
0.00548875
0.00593447
0.00630267
0.00662703
0.00693797
0.00726019
0.00760161
0.00796626
0.00835521
0.00876773
0.00920187
0.00965498
0.010124
0.0106059
0.0110974
0.0115954
0.0120973
0.0126002
0.0131018
0.0135999
0.0140925
0.0145778
0.0150542
0.0155204
0.0159752
0.0164174
0.0168461
0.0172605
0.0176598
0.0180435
0.0184111
0.0187623
0.0190971
0.0194157
0.0197189
0.0200072
0.0202805
0.0205393
0.0207841
0.0210161
0.0212367
0.0214475
0.0216501
0.0218467
0.0220402
0.0222332
0.0224285
0.0226293
0.0228386
0.0230599
0.0232967
0.0235527
0.0238312
0.0241356
0.0244688
0.0248331
0.0252303
0.0256611
0.0261247
0.0266189
0.0271395
0.0276799
0.0282313
0.0287819
0.0293172
0.029819
0.0302648
0.0306264
0.0308677
0.0309399
0.030775
0.030273
0.0292844
0.027597
0.0249608
0.0213068
0.0170969
0.00323957
0.00474607
0.00544307
0.00591092
0.00628188
0.00659855
0.00688793
0.00716996