/*--------------------------------*- C++ -*----------------------------------*\
| =========                 |                                                 |
| \\      /  F ield         | OpenFOAM: The Open Source CFD Toolbox           |
|  \\    /   O peration     | Version:  v2012                                 |
|   \\  /    A nd           | Website:  www.openfoam.com                      |
|    \\/     M anipulation  |                                                 |
\*---------------------------------------------------------------------------*/
FoamFile
{
    version     2.0;
    format      ascii;
    class       volScalarField;
    location    "503";
    object      nut;
}
// * * * * * * * * * * * * * * * * * * * * * * * * * * * * * * * * * * * * * //

dimensions      [0 2 -1 0 0 0 0];


internalField   nonuniform List<scalar> 
6556
(
0.00328912
0.0116161
0.0139819
0.0143929
0.0142886
0.0142886
0.0143929
0.0139819
0.0116161
0.00328912
0.00242946
0.00945675
0.0127588
0.0137016
0.0138083
0.0138083
0.0137016
0.0127588
0.00945675
0.00242946
0.00192352
0.00809516
0.0116611
0.012989
0.0133146
0.0133146
0.012989
0.0116611
0.00809516
0.00192352
0.00159851
0.00714408
0.0107242
0.0122942
0.0127964
0.0127964
0.0122942
0.0107242
0.00714408
0.00159851
0.0013745
0.00643388
0.00993136
0.011638
0.0122655
0.0122655
0.011638
0.00993137
0.00643389
0.0013745
0.00121122
0.00587749
0.00925625
0.011028
0.0117367
0.0117367
0.011028
0.00925627
0.00587751
0.00121122
0.00108678
0.00542555
0.00867464
0.0104653
0.0112214
0.0112214
0.0104654
0.00867467
0.00542558
0.00108679
0.000988539
0.00504812
0.00816722
0.00994768
0.0107271
0.0107271
0.00994771
0.00816727
0.00504815
0.000988541
0.000908736
0.00472598
0.00771928
0.00947162
0.0102579
0.010258
0.00947166
0.00771934
0.00472604
0.000908739
0.000842405
0.00444629
0.00731973
0.00903337
0.00981579
0.00981582
0.00903344
0.00731982
0.00444638
0.000842409
0.000786226
0.0042001
0.0069602
0.00862931
0.00940088
0.00940093
0.00862941
0.00696035
0.00420024
0.000786233
0.000737903
0.00398102
0.0066343
0.00825605
0.00901253
0.00901259
0.00825621
0.00663452
0.00398121
0.000737913
0.000695795
0.00378427
0.00633707
0.00791056
0.00864947
0.00864957
0.0079108
0.0063374
0.00378457
0.000695809
0.000658701
0.00360626
0.00606457
0.00759011
0.00831019
0.00831034
0.00759047
0.00606505
0.0036067
0.000658721
0.00062572
0.0034442
0.00581364
0.00729229
0.00799305
0.00799327
0.00729282
0.00581435
0.00344483
0.000625749
0.000596163
0.00329583
0.00558167
0.00701493
0.00769639
0.00769671
0.00701573
0.00558271
0.00329673
0.000596204
0.000569492
0.00315935
0.0053665
0.00675611
0.00741862
0.00741908
0.00675729
0.00536797
0.00316057
0.000569547
0.000545278
0.00303326
0.00516625
0.00651409
0.00715821
0.00715887
0.00651583
0.00516829
0.00303474
0.00054535
0.000523177
0.00291625
0.00497931
0.0062873
0.00691373
0.00691468
0.00628983
0.0049822
0.0029179
0.000523268
0.000502908
0.00280724
0.00480426
0.0060743
0.00668384
0.00668524
0.00607801
0.00480816
0.0028073
0.000503007
0.000484237
0.00270523
0.00463979
0.00587378
0.00646731
0.00646949
0.00588012
0.00465117
0.00273649
0.00055905
0.000466968
0.00260936
0.00448474
0.00568451
0.006263
0.00626647
0.0056956
0.00450959
0.0026816
0.000634181
0.000450933
0.00251888
0.00433809
0.00550542
0.00606987
0.00607527
0.00552368
0.00438219
0.00264503
0.000728155
0.000435991
0.00243314
0.00419892
0.00533551
0.00588694
0.00589489
0.005363
0.00426557
0.00264048
0.000847413
0.000422019
0.00235157
0.00406639
0.00517387
0.00571328
0.00572409
0.00521091
0.00416441
0.00266471
0.000998508
0.00040891
0.00227363
0.00393975
0.00501966
0.00554805
0.00556228
0.00506653
0.00408207
0.00270499
0.00118127
0.000396571
0.00219886
0.00381831
0.00487213
0.00539061
0.00540951
0.00493588
0.00401004
0.0027488
0.00139035
0.000384918
0.00212679
0.00370141
0.00473058
0.00524037
0.00526554
0.00481747
0.00394971
0.00279511
0.00161712
0.000373878
0.002057
0.00358841
0.00459434
0.00509678
0.00512996
0.00471011
0.00390016
0.00284737
0.00184547
0.000363384
0.00198912
0.00347872
0.00446277
0.00495928
0.00500227
0.00461281
0.00386068
0.00290693
0.00206407
0.000353374
0.00192276
0.00337174
0.00433527
0.00482732
0.00488191
0.0045247
0.00383067
0.00297349
0.00227056
0.000343794
0.00185755
0.00326694
0.00421122
0.00470033
0.00476829
0.00444497
0.00380929
0.00304421
0.00246297
0.000334592
0.00179314
0.00316374
0.00409001
0.00457771
0.00466078
0.00437277
0.00379542
0.00311743
0.0026401
0.000325718
0.0017292
0.00306157
0.003971
0.00445882
0.00455867
0.00430724
0.00378795
0.00319134
0.00280125
0.000317127
0.00166541
0.00295988
0.00385352
0.00434295
0.0044612
0.00424744
0.00378561
0.00326413
0.00294601
0.000308773
0.00160147
0.00285806
0.00373687
0.00422935
0.00436754
0.00419234
0.00378705
0.0033341
0.0030742
0.000300616
0.00153712
0.00275556
0.00362029
0.0041172
0.00427677
0.00414084
0.00379083
0.0033998
0.00318593
0.000292612
0.00147215
0.0026518
0.00350301
0.00400558
0.00418785
0.00409172
0.00379551
0.00346008
0.00328166
0.000284721
0.00140638
0.00254629
0.00338423
0.00389354
0.00409967
0.00404368
0.00379964
0.00351412
0.0033623
0.000276902
0.00133971
0.00243855
0.00326314
0.00378
0.00401098
0.00399531
0.00380182
0.00356142
0.00342927
0.000269116
0.00127216
0.00232821
0.00313895
0.00366384
0.00392041
0.00394509
0.00380065
0.00360176
0.00348443
0.000261321
0.00120381
0.00221502
0.00301086
0.00354386
0.00382643
0.00389135
0.0037947
0.00363499
0.00352993
0.000253478
0.00113483
0.00209884
0.00287813
0.00341875
0.00372735
0.00383223
0.00378239
0.00366083
0.00356782
0.000245546
0.00106545
0.00197964
0.00274008
0.00328715
0.00362127
0.00376559
0.00376182
0.00367856
0.00359964
0.00023748
0.000995927
0.00185752
0.00259608
0.00314759
0.00350606
0.00368895
0.00373063
0.0036867
0.00362578
0.000229233
0.000926521
0.00173269
0.0024456
0.00299858
0.00337935
0.00359937
0.0036858
0.0036827
0.00364497
0.000220752
0.000857471
0.00160539
0.00228819
0.00283859
0.00323858
0.00349349
0.00362357
0.00366275
0.00365386
0.000211972
0.000788975
0.00147593
0.00212355
0.00266621
0.00308106
0.00336759
0.00353943
0.00362174
0.00364693
0.000202813
0.00072118
0.00134466
0.00195158
0.00248022
0.00290426
0.00321781
0.0034284
0.00355351
0.00361671
0.000193169
0.000654185
0.001212
0.00177246
0.0022799
0.00270608
0.0030406
0.00328545
0.0034514
0.00355457
0.000182893
0.000588062
0.00107853
0.00158692
0.00206539
0.00248549
0.00283342
0.00310632
0.00330917
0.00345173
0.00017176
0.000522876
0.000945269
0.00139665
0.00183832
0.00224338
0.0025958
0.00288877
0.00312228
0.00330077
0.000159407
0.000458646
0.000813951
0.00120511
0.00160303
0.00198391
0.00233087
0.00263411
0.00288958
0.00309664
0.000110947
0.000400253
0.00068966
0.00101879
0.00136756
0.00171574
0.00204671
0.00234864
0.00261331
0.00283695
0.000108542
0.000354946
0.000585135
0.000852002
0.0011467
0.00145372
0.00175719
0.00204268
0.00230198
0.00253065
0.000107042
0.000323576
0.00051276
0.000724093
0.000962908
0.00122029
0.00148152
0.00173642
0.00197698
0.00219737
7.83745e-05
0.000310064
0.000473737
0.000644961
0.000834199
0.00103707
0.00124897
0.00146275
0.00167126
0.00186833
6.71202e-05
0.000294667
0.000457753
0.000604274
0.000737638
0.00086565
0.0010038
0.00115013
0.00129757
0.00144189
6.52448e-05
0.00022466
0.000429471
0.000558018
0.000678242
0.000709825
0.000772455
0.000866931
0.000974138
0.00108396
6.92199e-05
0.000115522
0.00014365
0.000175531
0.000205722
0.000225981
0.00024121
0.000253759
0.000264032
0.000272405
0.000144857
0.000163752
0.000166145
0.000171308
0.000175477
0.000178026
0.000178806
0.000177689
0.000174253
0.000170098
0.000165156
0.000159412
0.00015293
0.000145964
0.000138661
0.000131106
0.000123202
0.000115863
0.000108777
0.000101673
9.43143e-05
8.64024e-05
7.74446e-05
6.64272e-05
4.26433e-05
0.000258563
0.00053101
0.00080349
0.000951185
0.00103017
0.0010773
0.00110173
0.0011061
0.0010893
0.00105807
0.00101879
0.000971707
0.000917547
0.000859196
0.000798534
0.000736229
0.000669952
0.000579383
0.000481851
0.000388925
0.000307261
0.000240026
0.00018875
0.000148292
5.10513e-05
0.000407226
0.000668261
0.00103888
0.0013414
0.00151957
0.00162249
0.00167754
0.00169724
0.00156315
0.00149722
0.00153012
0.00153184
0.00145865
0.00137962
0.00129646
0.00120873
0.00111188
0.000988097
0.000841205
0.000684031
0.000531845
0.000398468
0.000292605
0.000207145
5.51416e-05
0.000670361
0.000701478
0.00106071
0.00140364
0.001653
0.00179212
0.00186339
0.00188947
0.00177949
0.00168993
0.00169072
0.0017192
0.00164732
0.00157388
0.0014996
0.00142154
0.00133253
0.00121674
0.00106927
0.000895765
0.000710283
0.000532713
0.000380501
0.000248839
5.76385e-05
0.00101995
0.000880605
0.00120003
0.00142205
0.00166735
0.00182859
0.00190417
0.00192663
0.00191089
0.00186632
0.00180166
0.00172723
0.00165356
0.00158703
0.00152762
0.00146948
0.00140204
0.00130909
0.00118089
0.00101694
0.000826642
0.000629384
0.000446508
0.000275962
5.77371e-05
0.00128597
0.00120225
0.00139484
0.00152768
0.0016921
0.00183354
0.0019077
0.00192279
0.00189547
0.00183787
0.00175986
0.0016723
0.00158954
0.00152325
0.00147461
0.00143539
0.00139056
0.00132188
0.00121648
0.0010704
0.000889073
0.000688618
0.000489407
0.000290561
5.69157e-05
0.0015074
0.00160796
0.0016257
0.00168373
0.00178744
0.00186965
0.00191463
0.00191847
0.00187878
0.00180669
0.00171288
0.00160935
0.00151201
0.00143704
0.00139159
0.00136653
0.00134122
0.00129323
0.00120747
0.00107915
0.000911455
0.000716714
0.000511611
0.000295161
5.55535e-05
0.00172265
0.00185894
0.00187087
0.00188574
0.00193164
0.00196931
0.00197326
0.00194115
0.00187762
0.00178935
0.00167891
0.00155731
0.00144257
0.00135341
0.00130158
0.00128297
0.00127281
0.00124145
0.00117099
0.0010582
0.000905194
0.000720718
0.000516829
0.000292094
5.37958e-05
0.00193312
0.00208891
0.00211979
0.0021154
0.00211205
0.00210805
0.00207747
0.00201439
0.00192038
0.00180202
0.00166693
0.00152406
0.00138865
0.00128072
0.00121401
0.0011912
0.00118701
0.00116757
0.00111072
0.00101337
0.000876592
0.000705779
0.00050824
0.00028247
5.18161e-05
0.00213763
0.00230826
0.00236328
0.00235204
0.00231609
0.00227649
0.0022146
0.00212304
0.0020006
0.00185293
0.0016863
0.00151475
0.00135386
0.00122266
0.00113372
0.00109427
0.00108839
0.00107615
0.00103023
0.00094746
0.000827529
0.000672402
0.000484873
0.000264434
4.99956e-05
0.00233501
0.00251757
0.0025972
0.00259048
0.00253545
0.00246651
0.00237716
0.00226138
0.00211431
0.00193694
0.00173724
0.00153161
0.00133995
0.00118094
0.00106575
0.000998669
0.000978928
0.000968911
0.000934334
0.00086548
0.000762219
0.00062382
0.000449782
0.000241799
4.81999e-05
0.00252412
0.00271555
0.00281863
0.00282639
0.00276808
0.00267112
0.00255877
0.00242391
0.00225712
0.00205322
0.00182219
0.00157888
0.00135102
0.00116091
0.00101674
0.000917422
0.000868488
0.000853368
0.000828123
0.000771578
0.000684349
0.000563773
0.000407305
0.000218311
4.63603e-05
0.00270248
0.00289967
0.00302409
0.00304881
0.00299026
0.00287978
0.00275271
0.00260572
0.0024266
0.0022045
0.00194314
0.00166422
0.00139678
0.00117141
0.000996817
0.00082925
0.000775594
0.000736217
0.000716508
0.000670544
0.000598638
0.000495792
0.000363316
0.000198693
4.44903e-05
0.00286733
0.00306789
0.00321061
0.00325236
0.00320059
0.0030881
0.00295348
0.0028018
0.00261904
0.00238866
0.00210894
0.00179893
0.00149114
0.00122482
0.00101545
0.000791621
0.000661053
0.00064145
0.000601498
0.000568687
0.000511515
0.000423562
0.000309382
0.000187051
4.28059e-05
0.00301604
0.0032115
0.0033743
0.00343386
0.00339663
0.00329394
0.00315584
0.00300687
0.00283049
0.00260437
0.00232051
0.00199274
0.00165122
0.00134062
0.00108646
0.000887833
0.000618699
0.000503372
0.000493591
0.000478972
0.000433846
0.000359136
0.000240151
0.000147661
5.78821e-05
0.00314656
0.00333641
0.0034905
0.00358974
0.00357102
0.0034797
0.00335239
0.00321472
0.00305522
0.00284705
0.00257681
0.00225124
0.0018929
0.00154609
0.0012402
0.000988629
0.000789395
0.000520529
0.000390676
0.000336502
0.000331526
0.000292852
0.00024752
0.000197737
0.000126972
0.00325781
0.00345076
0.00361505
0.00371869
0.00371983
0.00364711
0.00354146
0.0034198
0.00328642
0.00299777
0.00275202
0.00257184
0.0022256
0.00186687
0.00152112
0.00120967
0.000944089
0.000731674
0.00056503
0.000397297
0.000323154
0.000291629
0.000280116
0.000256879
0.000203168
0.00334929
0.00353302
0.00370967
0.00381813
0.00384107
0.0037915
0.0037076
0.003615
0.00351354
0.00326548
0.00297138
0.0027407
0.00256381
0.00230489
0.00195825
0.00161359
0.00128691
0.000996627
0.000758018
0.000581753
0.000467281
0.000404671
0.000379498
0.000372844
0.000381526
0.00342158
0.00359193
0.00376729
0.00388661
0.00393204
0.00390937
0.00384901
0.0037859
0.00372308
0.00364612
0.00341464
0.00315618
0.00293186
0.00272494
0.00251384
0.00219669
0.00186176
0.00153239
0.00122863
0.000972163
0.000781
0.000661105
0.000603831
0.000586888
0.00059003
0.00347632
0.00362897
0.00379823
0.00392552
0.00399048
0.00399527
0.00396075
0.00392289
0.00389664
0.0038695
0.00382599
0.00374229
0.00353377
0.00330794
0.00306767
0.0027962
0.00249561
0.00217939
0.00186281
0.001561
0.00129147
0.00105394
0.00085916
0.000740621
0.000672825
0.00351622
0.00364702
0.0038049
0.00393559
0.00401564
0.00404599
0.00404027
0.00402366
0.0040232
0.0040371
0.00405246
0.00404696
0.00399658
0.00389526
0.00375421
0.00358371
0.00329846
0.00295462
0.00258707
0.00223201
0.00191614
0.00164398
0.0014162
0.00125744
0.00117775
0.00354484
0.00365028
0.00379128
0.00391975
0.00401067
0.00406063
0.00408079
0.00408851
0.00410429
0.00414132
0.00419781
0.00425468
0.00428412
0.00427362
0.00422687
0.00415098
0.00405269
0.00387792
0.00354627
0.00321132
0.00291089
0.00264989
0.00242471
0.00225031
0.00214477
0.00356621
0.00364411
0.00376305
0.00388288
0.00397874
0.00404324
0.00408255
0.00411123
0.00414428
0.00419294
0.00426521
0.00435455
0.00443966
0.00450094
0.00453293
0.00453713
0.0045171
0.0044773
0.0043379
0.00409488
0.0038738
0.00368173
0.00351139
0.00336159
0.00324998
0.00358421
0.00363447
0.00372729
0.00383192
0.00392563
0.00399848
0.00405203
0.00409566
0.00414169
0.00420044
0.00427855
0.00437581
0.00448195
0.00458385
0.0046717
0.00473807
0.00477839
0.00479617
0.00469249
0.00456464
0.00445623
0.00436047
0.00426975
0.00418207
0.00410079
0.00360176
0.00362706
0.00369187
0.00377563
0.00385969
0.00393341
0.00399486
0.00404894
0.00410416
0.00416922
0.00425017
0.0043489
0.00446114
0.00457764
0.00468873
0.00478656
0.00476656
0.00469594
0.00463739
0.00459993
0.00457746
0.00456248
0.00454995
0.00453514
0.00451635
0.00361979
0.00362596
0.00366412
0.00372357
0.00379133
0.00385799
0.00391979
0.00397822
0.00403809
0.00410562
0.00418666
0.0042838
0.00439537
0.00451479
0.00463287
0.00457613
0.00447823
0.00440817
0.00437098
0.00436033
0.0043702
0.00439647
0.00445119
0.00446795
0.00450095
0.00363641
0.00363221
0.00364893
0.00368428
0.00373156
0.00378424
0.00383851
0.00389378
0.00395232
0.00401813
0.00409528
0.00418642
0.00429128
0.00440543
0.00444307
0.00429854
0.00418243
0.00410486
0.00406118
0.00404078
0.00404482
0.00407049
0.00411153
0.00416331
0.00421994
0.00364644
0.00364257
0.00364672
0.00366264
0.00368932
0.00372392
0.00376408
0.00380907
0.00385979
0.00391829
0.00398704
0.00406797
0.00416126
0.00426394
0.0042576
0.00406598
0.00392017
0.00381786
0.00375079
0.00371526
0.00370673
0.00372017
0.0037505
0.00379408
0.00384588
0.00364153
0.00364914
0.003652
0.00365722
0.00366788
0.00368473
0.00370805
0.003738
0.00377521
0.00382083
0.00387624
0.00394261
0.00402022
0.00410746
0.00419947
0.00397044
0.00377831
0.00364429
0.00354978
0.00348618
0.00344969
0.0034367
0.00344324
0.00346497
0.00349912
0.00361099
0.00363996
0.00365312
0.00365855
0.0036617
0.00366649
0.00367526
0.00368961
0.00371081
0.00374002
0.0037783
0.00382643
0.00388467
0.00395234
0.00402705
0.00405785
0.00381311
0.0036259
0.00349292
0.00339793
0.00333074
0.00328703
0.00326401
0.00325826
0.00326687
0.00354318
0.00360053
0.00363327
0.00364953
0.00365612
0.00365812
0.00365931
0.00366256
0.00367003
0.00368343
0.00370404
0.00373276
0.00377004
0.00381575
0.00386905
0.0039278
0.00398831
0.00381727
0.00362537
0.00348306
0.00337867
0.00330249
0.00324887
0.00321367
0.00319387
0.00342698
0.00351483
0.00357316
0.00360921
0.0036293
0.00363873
0.00364185
0.00364222
0.00364267
0.00364547
0.00365235
0.00366459
0.003683
0.00370795
0.00373939
0.00377675
0.00381884
0.00386352
0.00390901
0.00378932
0.00363226
0.00351187
0.00342225
0.00335587
0.00330816
0.00325176
0.00336935
0.00345578
0.00351668
0.00355736
0.00358266
0.00359678
0.0036034
0.0036056
0.00360594
0.00360652
0.00360896
0.00361446
0.00362386
0.00363761
0.00365588
0.00367851
0.00370503
0.00373469
0.00376617
0.00379859
0.0038313
0.00379569
0.00369189
0.00361133
0.00301418
0.00315705
0.00326983
0.00335639
0.00342074
0.00346677
0.00349816
0.00351824
0.00352998
0.00353597
0.00353842
0.00353914
0.0035396
0.00354094
0.00354399
0.00354933
0.00355732
0.0035681
0.00358164
0.00359769
0.00361595
0.00363602
0.00365722
0.00367891
0.00370074
0.00272009
0.00288038
0.00301379
0.00312245
0.00320896
0.00327614
0.00332684
0.00336383
0.0033897
0.00340682
0.0034173
0.00342297
0.00342538
0.00342582
0.00342533
0.00342472
0.00342463
0.0034255
0.00342766
0.00343129
0.00343646
0.00344316
0.00345128
0.00346063
0.00347102
0.00238673
0.00255323
0.00269742
0.00282001
0.00292232
0.00300606
0.00307321
0.00312583
0.00316598
0.00319562
0.0032166
0.00323057
0.00323902
0.00324323
0.00324429
0.00324311
0.00324045
0.00323691
0.00323299
0.00322906
0.00322542
0.00322226
0.00321973
0.00321792
0.0032169
0.00204259
0.00220038
0.00234108
0.00246431
0.00257054
0.00266067
0.00273576
0.00279713
0.0028462
0.00288441
0.00291321
0.00293394
0.00294787
0.00295613
0.00295975
0.00295961
0.00295649
0.00295104
0.00294382
0.0029353
0.00292586
0.00291582
0.00290546
0.00289498
0.00288465
0.00157995
0.00172094
0.00186962
0.00202937
0.00214833
0.00222832
0.00229572
0.00235137
0.00239622
0.00243125
0.0024575
0.00247597
0.00248764
0.00249344
0.00249421
0.00249075
0.00248375
0.00247383
0.00246154
0.00244736
0.00243171
0.00241495
0.0023974
0.00237932
0.00236106
0.00119374
0.00131227
0.00141011
0.00146622
0.00151395
0.00155337
0.00158491
0.00160911
0.00162654
0.00163784
0.00164365
0.0016446
0.00164131
0.0016344
0.0016244
0.00161185
0.00159722
0.00158092
0.00156333
0.0015448
0.00152559
0.00150597
0.00148613
0.00146628
0.00144662
0.000279095
0.000284859
0.000289761
0.000293781
0.000297018
0.000299541
0.000301408
0.000302673
0.000303388
0.000303603
0.000303369
0.000302733
0.000301741
0.000300438
0.000298865
0.000297063
0.000295067
0.000292911
0.000290625
0.000288237
0.000285771
0.00028325
0.000280693
0.000278115
0.000275532
4.43255e-05
6.34427e-05
4.27478e-05
0.000132455
9.5554e-05
0.000211069
0.000201465
0.000288719
0.000352887
0.000408485
0.000463202
0.000385106
0.000484142
0.000460015
0.000517102
0.000657601
0.000700167
0.000808748
0.00117796
0.00123816
0.00133728
0.00210443
0.00211421
0.00215641
0.00317579
0.00313772
0.00313228
0.00403817
0.00399853
0.00398097
0.0044961
0.00448269
0.00447806
0.00452955
0.00455235
0.0045761
0.00427333
0.00432192
0.00436908
0.00388971
0.00395411
0.00401821
0.00353915
0.00358378
0.00360994
0.00328344
0.00330846
0.00334046
0.00318499
0.00318695
0.00319699
0.00327442
0.00325316
0.00324072
0.00355248
0.00351003
0.00347803
0.00372035
0.00373987
0.00375957
0.00348094
0.00349148
0.00350265
0.00321642
0.00321663
0.00321739
0.00287539
0.00286651
0.00285781
0.00234459
0.0023283
0.00231201
0.00142934
0.00141242
0.00139576
0.000273265
0.000271018
0.00026879
2.62096e-05
4.35061e-05
5.5076e-05
5.49348e-05
7.00252e-05
7.54913e-05
8.02146e-05
8.43972e-05
8.81661e-05
9.16042e-05
9.47689e-05
9.77028e-05
0.000100439
0.000103002
0.000105416
0.000107698
0.000109864
0.000111929
0.000113904
0.000115801
0.00011763
0.000119402
0.000121124
0.000122807
0.000124458
0.000126085
0.000127695
0.000129297
0.000130899
0.000132506
0.000134129
0.000135774
0.00013745
0.000139166
0.000140933
0.000142761
0.000144663
0.000146655
0.000148753
0.00015098
0.000153349
0.000155792
0.000158309
0.000160899
0.000163563
0.000166304
0.000169125
0.000172026
0.000175008
0.000178069
0.000181208
0.00018442
0.000187699
0.000191034
0.000194412
0.000197813
0.000201212
0.000204572
0.000207844
0.000210962
0.000213837
0.000216348
0.000218336
0.0002196
0.000219948
0.000219248
0.000217476
0.000214584
0.000210467
0.000204899
0.000197735
0.000188616
0.000177631
0.000165142
0.000151607
0.000138863
0.000126122
0.000112696
9.73009e-05
6.57481e-05
4.30465e-05
0.000123872
0.000142155
0.000160295
0.000183637
0.000211015
0.000240594
0.000271648
0.000303501
0.000335601
0.000367505
0.000398879
0.000429489
0.000459178
0.000487854
0.000515467
0.000542004
0.000567475
0.00059191
0.000615352
0.000637851
0.000659467
0.000680265
0.000700312
0.000719677
0.000738432
0.000756644
0.000774383
0.000791714
0.000808696
0.000825387
0.000841835
0.000858081
0.000874155
0.000890071
0.000905828
0.000921406
0.000936764
0.000951746
0.000966233
0.000980386
0.000995905
0.00101213
0.00102899
0.00104648
0.00106464
0.00108346
0.00110296
0.00112314
0.00114398
0.00116544
0.00118747
0.00120996
0.00123281
0.00125583
0.0012788
0.00130141
0.00132327
0.00134385
0.00136249
0.00137828
0.00139004
0.00139619
0.00139474
0.00138418
0.00136686
0.00134246
0.00131026
0.00126917
0.00121558
0.00115107
0.00107189
0.000982087
0.00087993
0.000745395
0.000572419
0.000415354
0.000295434
0.000209128
7.03325e-05
5.26064e-05
0.000183532
0.000221894
0.000261696
0.000312698
0.000372767
0.000439018
0.000509122
0.000581126
0.000653506
0.000725137
0.000795239
0.000863308
0.000929038
0.000992266
0.00105292
0.00111101
0.00116656
0.00121965
0.00127036
0.0013188
0.00136508
0.00140931
0.00145162
0.00149212
0.00153092
0.00156815
0.00160392
0.00163833
0.00167148
0.00170346
0.00173437
0.00176429
0.00179327
0.00182139
0.00184868
0.00187519
0.00190094
0.00192593
0.00195016
0.00197362
0.00199682
0.00202125
0.00204615
0.00207133
0.0020967
0.00212219
0.00214771
0.00217311
0.00219824
0.00222288
0.00224676
0.00226956
0.00229086
0.00231019
0.00232696
0.00234049
0.00234999
0.00235456
0.00235315
0.00234463
0.00232773
0.00230106
0.00223682
0.00204727
0.00188742
0.00176899
0.00169205
0.00166244
0.00169
0.00170601
0.00158824
0.00146594
0.0013326
0.00116981
0.000936651
0.000680208
0.000455914
0.000284074
7.30952e-05
5.82306e-05
0.000232749
0.00030315
0.000371361
0.000455449
0.000552024
0.000657586
0.000768076
0.000880416
0.000992349
0.00110232
0.00120932
0.00131273
0.00141224
0.00150768
0.00159901
0.00168629
0.00176958
0.00184901
0.00192469
0.00199678
0.00206541
0.00213074
0.00219291
0.00225205
0.00230832
0.00236185
0.00241276
0.00246118
0.00250722
0.00255099
0.00259259
0.00263211
0.00266964
0.00270526
0.00273903
0.002771
0.00280123
0.00282974
0.00285653
0.00288161
0.00290493
0.00292763
0.00295009
0.00297167
0.00299212
0.0030112
0.0030287
0.00304436
0.00305787
0.00306887
0.00307692
0.00308152
0.00308209
0.00307797
0.0030684
0.00305258
0.00302962
0.00299858
0.00295851
0.00290853
0.00284784
0.00277584
0.0026922
0.00250742
0.00226782
0.00207977
0.00194283
0.00185809
0.00183502
0.00185787
0.0017291
0.00160242
0.00147527
0.0013325
0.00112497
0.000851844
0.000571595
0.000329779
7.24251e-05
6.20311e-05
0.000279308
0.000384697
0.000485678
0.000604523
0.00073816
0.000881256
0.00102899
0.00117762
0.00132456
0.00146811
0.00160722
0.00174131
0.00187008
0.00199342
0.00211135
0.00222395
0.00233133
0.00243364
0.00253103
0.00262366
0.0027117
0.0027953
0.00287462
0.00294981
0.00302101
0.00308837
0.00315201
0.00321205
0.0032686
0.00332176
0.00337163
0.00341828
0.0034618
0.00350224
0.00353966
0.00357411
0.0036056
0.00363417
0.0036598
0.00368246
0.00370213
0.00371871
0.00373392
0.00374702
0.00375757
0.00376525
0.00376977
0.00377078
0.00376792
0.00376074
0.00374873
0.0037313
0.00370781
0.00367749
0.00363954
0.00359308
0.00353719
0.00347096
0.00339353
0.00330416
0.00320232
0.00308781
0.00296082
0.00282213
0.00267289
0.00251561
0.00235394
0.00217359
0.00203058
0.00188088
0.00173752
0.00160542
0.00148511
0.0013663
0.00120658
0.000950389
0.000647376
0.00035466
7.02513e-05
6.46906e-05
0.000319058
0.00046547
0.000601254
0.00075455
0.000922684
0.00109958
0.00127989
0.0014597
0.0016364
0.00180833
0.00197454
0.00213451
0.00228802
0.00243503
0.00257558
0.0027098
0.00283783
0.00295982
0.00307594
0.00318636
0.00329124
0.00339075
0.00348504
0.00357426
0.00365855
0.00373805
0.00381286
0.00388311
0.0039489
0.0040103
0.00406739
0.00412024
0.00416891
0.00421343
0.00425384
0.00429016
0.0043224
0.00435056
0.00437463
0.00439458
0.00441037
0.00442194
0.00442955
0.00443437
0.0044356
0.00443281
0.00442566
0.00441379
0.0043968
0.00437423
0.00434554
0.00431011
0.00426722
0.00421607
0.00415575
0.00408531
0.00400371
0.00390992
0.00380298
0.00368203
0.00354651
0.0033962
0.00323144
0.00305332
0.00286401
0.00266702
0.002467
0.00226926
0.00207911
0.00190095
0.00173759
0.00159083
0.00146169
0.00134611
0.00121596
0.0010064
0.00070476
0.000372773
6.74247e-05
6.67533e-05
0.000355049
0.000544417
0.00071528
0.000901041
0.00110009
0.00130628
0.00151425
0.00172022
0.00192172
0.00211726
0.002306
0.00248757
0.0026618
0.00282872
0.00298842
0.00314104
0.00328673
0.00342566
0.003558
0.0036839
0.00380354
0.00391706
0.00402463
0.00412638
0.00422244
0.00431294
0.004398
0.00447771
0.00455216
0.00462142
0.00468555
0.00474461
0.00479863
0.00484763
0.00489163
0.00493063
0.00496463
0.00499362
0.00501757
0.00503645
0.00505021
0.00505877
0.00506204
0.00506139
0.00505636
0.00504653
0.00503154
0.00501107
0.00498472
0.00495203
0.00491247
0.0048654
0.00481008
0.00474563
0.00467106
0.00458527
0.00448703
0.00437509
0.00424815
0.00410505
0.0039448
0.00376685
0.00357125
0.00335897
0.00313227
0.00289498
0.00265271
0.00241237
0.00218149
0.0019668
0.00177258
0.00159899
0.00144775
0.00131819
0.0011943
0.00102265
0.000735814
0.000380489
6.57295e-05
6.85665e-05
0.000388331
0.000621051
0.00082611
0.0010415
0.00126747
0.00149842
0.00172939
0.00195688
0.00217872
0.00239361
0.00260091
0.00280033
0.00299181
0.00317542
0.00335128
0.00351953
0.00368035
0.00383388
0.00398029
0.00411975
0.00425239
0.00437837
0.00449783
0.00461092
0.00471774
0.00481844
0.0049131
0.00500183
0.0050847
0.00516179
0.00523313
0.00529878
0.00535875
0.00541306
0.00546171
0.00550468
0.00554198
0.00557358
0.00559944
0.00561956
0.00563387
0.00564234
0.00564492
0.00564173
0.00563385
0.00562072
0.00560198
0.00557731
0.00554635
0.00550869
0.00546382
0.00541113
0.00534986
0.00527911
0.00519782
0.00510475
0.0049985
0.0048775
0.00474011
0.00458464
0.0044095
0.00421342
0.00399568
0.00375648
0.00349734
0.00322162
0.00293498
0.00264568
0.00236336
0.00209759
0.00185455
0.00164025
0.00145646
0.0013003
0.00115345
0.000954413
0.000707364
0.000386379
6.5125e-05
7.03546e-05
0.000420128
0.00069573
0.000933406
0.00117524
0.00142406
0.00167544
0.00192505
0.00216986
0.00240804
0.00263856
0.00286092
0.00307495
0.00328068
0.00347818
0.00366761
0.0038491
0.00402283
0.00418892
0.00434754
0.00449883
0.00464294
0.00477999
0.00491013
0.00503349
0.00515019
0.00526035
0.00536406
0.00546143
0.00555252
0.0056374
0.00571613
0.00578872
0.00585521
0.00591559
0.00596986
0.00601801
0.00606001
0.00609584
0.00612545
0.00614882
0.0061659
0.00617663
0.00618094
0.0061787
0.00617111
0.00615786
0.0061387
0.00611337
0.00608158
0.00604298
0.00599712
0.00594344
0.00588125
0.00580966
0.00572761
0.00563381
0.00552673
0.0054046
0.00526544
0.00510706
0.00492721
0.00472373
0.00449476
0.00423918
0.00395709
0.0036505
0.0033236
0.00298467
0.0026439
0.00231263
0.00200448
0.00173138
0.00149871
0.00130375
0.00108961
0.000921298
0.000702433
0.0004062
6.60751e-05
7.23059e-05
0.000452041
0.000769787
0.00103816
0.00130313
0.00157084
0.00183849
0.00210269
0.00236098
0.00261191
0.00285471
0.00308905
0.00331485
0.00353216
0.00374109
0.00394179
0.00413437
0.00431899
0.00449578
0.00466487
0.00482639
0.00498049
0.00512727
0.00526689
0.00539947
0.00552511
0.00564395
0.00575608
0.00586159
0.00596055
0.00605304
0.0061391
0.00621877
0.00629206
0.00635897
0.00641951
0.00647363
0.00652132
0.00656253
0.00659722
0.00662534
0.00664684
0.00666166
0.00666971
0.00667089
0.0066657
0.0066546
0.00663738
0.00661386
0.00658383
0.00654702
0.00650309
0.00645157
0.00639187
0.00632321
0.00624459
0.00615478
0.00605226
0.00593519
0.0058014
0.0056484
0.00547342
0.00527348
0.00504561
0.00478713
0.00449616
0.00417231
0.00381778
0.00343779
0.00304108
0.00264132
0.00225557
0.00190232
0.00159635
0.00134264
0.00110134
0.000883581
0.000705636
0.000446339
6.96728e-05
7.47146e-05
0.000486484
0.000845627
0.00114273
0.00142758
0.00171027
0.0019902
0.00226514
0.00253332
0.0027937
0.00304575
0.00328927
0.00352423
0.0037507
0.00396878
0.00417859
0.00438022
0.00457381
0.00475946
0.00493729
0.00510742
0.00526999
0.00542512
0.00557292
0.00571354
0.00584709
0.00597367
0.0060934
0.00620636
0.00631263
0.00641228
0.00650536
0.00659189
0.00667191
0.00674541
0.0068124
0.00687283
0.00692668
0.0069739
0.00701441
0.00704818
0.00707512
0.00709516
0.00710821
0.00711418
0.00711296
0.00710553
0.00709176
0.00707157
0.00704487
0.00701148
0.0069712
0.00692369
0.00686849
0.00680498
0.00673235
0.00664949
0.00655502
0.00644722
0.00632395
0.00618264
0.0060203
0.00583347
0.00561837
0.00537106
0.00508774
0.00476548
0.0044027
0.00400078
0.00356513
0.00310665
0.00264225
0.0021945
0.00178855
0.0014435
0.00116441
0.000885876
0.000697813
0.000489314
7.68833e-05
7.7864e-05
0.000525702
0.000878862
0.0012314
0.00155279
0.00184646
0.00213462
0.00241652
0.00269116
0.00295785
0.00321627
0.00346631
0.00370794
0.00394121
0.00416619
0.00438294
0.00459154
0.00479209
0.00498467
0.00516941
0.0053464
0.00551579
0.00567768
0.00583222
0.00597953
0.00611973
0.00625293
0.00637923
0.00649872
0.00661148
0.00671757
0.00681704
0.00690992
0.00699624
0.007076
0.00714921
0.00721584
0.00727585
0.00732919
0.00737579
0.00741554
0.00744836
0.00747414
0.00749277
0.0075041
0.00750798
0.00750512
0.00749565
0.00747962
0.00745705
0.00742791
0.00739209
0.00734945
0.00729968
0.00724238
0.00717692
0.00710246
0.00701785
0.00692161
0.00681183
0.00668613
0.0065416
0.00637476
0.00618151
0.00595722
0.00569686
0.00539525
0.00504778
0.00465114