/*--------------------------------*- C++ -*----------------------------------*\
| =========                 |                                                 |
| \\      /  F ield         | OpenFOAM: The Open Source CFD Toolbox           |
|  \\    /   O peration     | Version:  v2012                                 |
|   \\  /    A nd           | Website:  www.openfoam.com                      |
|    \\/     M anipulation  |                                                 |
\*---------------------------------------------------------------------------*/
FoamFile
{
    version     2.0;
    format      ascii;
    class       volScalarField;
    location    "503";
    object      omega;
}
// * * * * * * * * * * * * * * * * * * * * * * * * * * * * * * * * * * * * * //

dimensions      [0 0 -1 0 0 0 0];


internalField   nonuniform List<scalar> 
6556
(
652.215
233.735
201.834
198.074
200.54
200.54
198.074
201.834
233.735
652.215
481.749
200.289
164.459
158.038
158.408
158.408
158.038
164.459
200.289
481.749
381.423
170.486
138.024
130.738
129.827
129.827
130.738
138.024
170.486
381.423
316.975
146.673
118.349
111.066
109.518
109.518
111.066
118.349
146.673
316.976
272.557
128.02
103.227
96.2897
94.4747
94.4747
96.2897
103.227
128.02
272.557
240.178
113.32
91.3199
84.829
82.938
82.938
84.8289
91.3198
113.32
240.178
215.504
101.572
81.7564
75.7106
73.8358
73.8358
75.7106
81.7564
101.572
215.504
196.022
92.0299
73.9418
68.3032
66.4859
66.4859
68.3032
73.9417
92.0296
196.022
180.197
84.155
67.4587
62.1801
60.436
60.4359
62.18
67.4585
84.1546
180.198
167.044
77.5593
62.0071
57.043
55.3754
55.3754
57.0429
62.0068
77.5588
167.045
155.904
71.9605
57.3674
52.6777
51.0842
51.0842
52.6775
57.367
71.9596
155.906
146.322
67.1504
53.376
48.9266
47.4025
47.4024
48.9263
53.3753
67.1491
146.324
137.972
62.9735
49.9088
45.6714
44.2111
44.211
45.671
49.9079
62.9716
137.975
130.617
59.3119
46.871
42.8219
41.4199
41.4197
42.8212
46.8696
59.3091
130.621
124.077
56.0748
44.1884
40.3079
38.9593
38.959
40.3069
44.1864
56.0707
124.083
118.216
53.1916
41.8028
38.0745
36.7746
36.7741
38.073
41.7999
53.1858
118.224
112.927
50.6065
39.6679
36.0778
34.8226
34.8219
36.0756
39.6639
50.5989
112.938
108.126
48.2752
37.7466
34.2826
33.0685
33.0676
34.2795
37.7412
48.2668
108.14
103.743
46.162
36.0087
32.6603
31.4841
31.4827
32.6559
36.0013
46.1544
103.761
99.724
44.2381
34.4295
31.1876
30.0462
30.0442
31.181
34.4193
44.2451
99.7436
96.0217
42.48
32.9889
29.8451
28.7357
28.7323
29.8313
32.9366
42.0308
83.7355
92.5972
40.8682
31.6702
28.6167
27.5365
27.5302
28.588
31.5404
39.8459
70.9015
89.4177
39.3862
30.4591
27.4889
26.4349
26.4239
27.4359
30.2191
37.6754
60.8815
86.4548
38.0201
29.3438
26.4501
25.4195
25.4017
26.3641
28.969
35.3611
53.0068
83.6842
36.7581
28.3139
25.4905
24.4806
24.4547
25.3674
27.7486
33.033
46.8341
81.0848
35.5899
27.3609
24.6018
23.6097
23.5738
24.4396
26.5494
30.911
42.045
78.6379
34.5072
26.4775
23.7768
22.7997
22.7507
23.5567
25.4398
29.0997
38.3174
76.3272
33.5027
25.6572
23.0094
22.0442
21.9791
22.7194
24.4068
27.5857
35.3847
74.138
32.5706
24.895
22.2945
21.3381
21.2541
21.9274
23.4501
26.2914
32.9142
72.057
31.7056
24.1864
21.6276
20.677
20.5718
21.1797
22.5651
25.1538
30.7336
70.0722
30.9033
23.5278
21.005
20.0571
19.929
20.4743
21.7448
24.1292
28.806
68.1726
30.1604
22.916
20.4238
19.4753
19.323
19.8089
20.98
23.175
27.0927
66.3478
29.4743
22.3489
19.8813
18.9292
18.7512
19.1804
20.2608
22.2726
25.5599
64.5881
28.8428
21.8246
19.3758
18.4168
18.2117
18.586
19.5794
21.4108
24.1769
62.8845
28.2644
21.3422
18.906
17.9366
17.7028
18.0229
18.9297
20.5826
22.9168
61.2281
27.7382
20.9013
18.4714
17.4878
17.2233
17.4889
18.3071
19.7834
21.7569
59.6105
27.2636
20.5022
18.0718
17.0701
16.7725
16.9823
17.7087
19.0107
20.6795
58.0234
26.84
20.1456
17.7081
16.6838
16.3505
16.5026
17.1332
18.2641
19.6711
56.4587
26.4673
19.8331
17.3815
16.33
15.958
16.05
16.5816
17.5452
18.723
54.9083
26.145
19.5663
17.094
16.0106
15.5964
15.6261
16.0564
16.8576
17.8309
53.3642
25.872
19.3475
16.8483
15.7279
15.2682
15.2335
15.5617
16.207
16.9951
51.8186
25.6466
19.179
16.6473
15.4851
14.9765
14.8758
15.103
15.6004
16.2191
50.2634
25.4659
19.063
16.4948
15.2859
14.7251
14.5572
14.6865
15.0457
15.5096
48.6904
25.3264
19.0015
16.3944
15.1345
14.5183
14.2828
14.3184
14.5508
14.8743
47.091
25.223
18.9957
16.3499
15.0352
14.3607
14.0575
14.0047
14.1228
14.3208
45.4558
25.1498
19.0464
16.3647
14.9925
14.2569
13.8859
13.7504
13.7666
13.8547
43.774
25.0997
19.1531
16.4419
15.0106
14.2113
13.7724
13.5591
13.4853
13.4788
42.0329
25.0641
19.314
16.5835
15.093
14.2279
13.7206
13.4336
13.2796
13.1922
40.2167
25.0332
19.5254
16.7899
15.2421
14.3097
13.7333
13.3751
13.1486
12.9914
38.3044
24.9947
19.781
17.059
15.4583
14.4581
13.8118
13.384
13.0899
12.8712
36.2667
24.9314
20.069
17.384
15.7382
14.6718
13.9552
13.4586
13.1004
12.8255
34.0591
24.8164
20.3685
17.7499
16.0713
14.9431
14.158
13.5943
13.1749
12.8483
31.6097
24.5803
20.6277
18.1205
16.4312
15.2523
14.4053
13.7801
13.3055
12.936
28.7412
24.1162
20.7605
18.424
16.7611
15.5566
14.6665
13.9963
13.4871
13.0946
25.3393
23.2509
20.6574
18.5677
16.9828
15.7946
14.8999
14.2292
13.7167
13.3124
21.2258
21.4716
20.0318
18.3969
17.0056
15.9142
15.0971
14.4702
13.9755
13.575
15.5412
17.9408
18.3185
17.5947
16.6886
15.9074
15.2547
14.7136
14.2647
13.8891
13.3096
12.8848
15.1405
15.8626
15.8998
15.666
15.3379
14.992
14.6631
14.364
12.9377
9.76336
11.8944
13.7778
14.8979
15.4992
15.7763
15.8421
15.8039
15.726
13.7259
14.6607
18.2304
22.2763
26.1079
28.679
30.6116
32.2042
33.5079
34.5705
35.2466
20.7815
21.0853
21.7405
22.2696
22.5931
22.6921
22.5504
22.1143
21.5869
20.9597
20.2308
19.4081
18.524
17.5973
16.6384
15.6353
14.704
13.8048
12.9032
11.9693
10.9652
9.82842
8.4302
7.25575
44.0638
15.8689
9.29142
8.01883
7.66511
7.50751
7.38822
7.25474
7.07797
6.86348
6.63188
6.40387
6.19364
6.00511
5.8433
5.7152
5.64393
5.78949
6.08169
6.46237
6.868
7.21397
7.39997
7.38702
11.2169
47.5523
20.6727
10.1979
7.42205
6.5028
6.06978
5.78826
5.55413
5.31839
5.05515
4.80086
4.5618
4.34134
4.14344
3.97607
3.84977
3.78286
3.83378
4.02252
4.35587
4.82364
5.37752
5.92727
6.51432
12.2773
47.4478
24.6506
13.4831
8.80905
7.01557
6.19541
5.69298
5.31297
4.98042
4.65709
4.35138
4.07603
3.82152
3.58842
3.38637
3.22784
3.12861
3.11972
3.2235
3.46048
3.84725
4.37673
5.00306
5.85948
12.6642
45.6363
27.6459
16.1515
10.7917
8.11355
6.76012
5.9785
5.42171
4.97572
4.59459
4.2497
3.94005
3.65399
3.38672
3.14901
2.95667
2.82636
2.7797
2.83354
3.00696
3.32221
3.79236
4.41285
5.40575
12.6859
43.119
29.0581
18.3739
12.4839
9.39741
7.57244
6.44748
5.68227
5.10841
4.65386
4.27774
3.94343
3.63235
3.33304
3.05748
2.82766
2.66633
2.59233
2.61632
2.75144
3.01759
3.43548
4.03113
5.10219
12.5054
40.2599
29.667
20.1663
14.067
10.5407
8.44692
7.05859
6.06143
5.3347
4.78962
4.3671
4.01994
3.70174
3.37293
3.05684
2.78092
2.5829
2.48496
2.49049
2.60331
2.83763
3.21595
3.78535
4.9015
12.2061
37.4955
29.6571
21.3368
15.4463
11.6396
9.2361
7.63163
6.48911
5.63841
4.99336
4.51132
4.14189
3.82093
3.49153
3.14056
2.80867
2.56116
2.43565
2.42774
2.52695
2.74002
3.08878
3.63449
4.77356
11.8199
34.9437
29.2096
22.0274
16.5274
12.6395
10.0064
8.18386
6.87603
5.9158
5.21249
4.6945
4.30554
3.98594
3.66092
3.29117
2.90951
2.61272
2.4542
2.4284
2.51352
2.70829
3.03288
3.55986
4.71757
11.3849
32.6227
28.4093
22.4108
17.3223
13.4879
10.7216
8.72661
7.26631
6.19315
5.42307
4.87916
4.48935
4.18614
3.88027
3.51105
3.09256
2.73276
2.53091
2.48511
2.55728
2.73755
3.04567
3.56878
4.77511
10.9849
30.5257
27.417
22.5083
17.8593
14.1696
11.3532
9.23681
7.65458
6.48675
5.65135
5.07749
4.68881
4.41371
4.15182
3.80849
3.37797
2.94768
2.67553
2.59403
2.65151
2.82138
3.12155
3.65233
4.90128
10.5903
28.6434
26.3526
22.3537
18.1712
14.693
11.8867
9.69691
8.02621
6.78526
5.89702
5.30042
4.90862
4.66774
4.47334
4.19746
3.7882
3.30288
2.91623
2.76307
2.79713
2.95872
3.25776
3.79964
5.05569
10.1861
26.9528
25.2725
21.9891
18.3256
15.0458
12.304
10.0912
8.36809
7.07925
6.15959
5.54052
5.15252
4.94218
4.8222
4.66132
4.33935
3.85868
3.34584
3.03032
3.00699
3.15272
3.45022
3.99247
5.18931
9.77527
25.4263
24.2017
21.5014
18.3245
15.2569
12.6167
10.4201
8.67538
7.36017
6.42397
5.80014
5.41625
5.2274
5.16713
5.13439
4.9984
4.6376
4.09616
3.5666
3.33604
3.42489
3.7109
4.2409
5.3167
9.40516
24.0381
23.1591
20.9416
18.1896
15.3617
12.8451
10.6909
8.94796
7.62367
6.68203
6.06008
5.6846
5.51207
5.48107
5.53677
5.59862
5.54069
5.21613
4.65372
4.05811
3.91122
4.1246
4.62997
5.55573
8.63403
22.7642
22.152
20.3409
17.948
15.3941
12.9983
10.9101
9.18925
7.86869
6.92661
6.30699
5.93824
5.77666
5.75329
5.83067
5.98836
6.17742
6.3059
6.22711
5.86944
5.31629
5.14592
5.44964
6.18918
8.2593
21.584
21.1775
19.7073
17.6432
15.3709
13.1064
11.1009
9.41202
8.1018
7.15684
6.52903
6.1631
6.00587
5.98219
6.04001
6.18043
6.39934
6.69805
7.04447
7.38615
7.6887
7.99004
8.50769
9.4286
10.5718
20.4812
20.235
19.0553
17.2934
15.2778
13.2074
11.2773
9.63015
8.32418
7.37285
6.73035
6.35107
6.18837
6.16438
6.21463
6.30863
6.44207
6.63396
6.88908
7.2147
7.59379
8.00278
8.41101
8.83655
9.24179
19.4434
19.3221
18.3933
16.9126
15.1392
13.2839
11.4582
9.85744
8.55543
7.58516
6.9147
6.50488
6.31943
6.28788
6.34328
6.44584
6.57352
6.71736
6.88421
7.08417
7.32814
7.60893
7.88553
8.12539
8.2781
18.4632
18.4359
17.7231
16.497
14.9634
13.3108
11.6693
10.1172
8.82796
7.83176
7.11235
6.64807
6.41083
6.34085
6.37611
6.47451
6.60928
6.76318
6.92475
7.0863
7.24318
7.39136
7.51363
7.5653
7.48846
17.5377
17.576
17.0463
16.0531
14.756
13.3036
11.8297
10.4273
9.15362
8.1442
7.38005
6.84223
6.52669
6.38488
6.35904
6.4066
6.49876
6.61516
6.73868
6.85206
6.93912
6.98693
6.98268
6.89475
6.6862
16.6692
16.7454
16.3657
15.5814
14.5072
13.2643
11.9607
10.6941
9.5344
8.53492
7.73472
7.14386
6.74446
6.5166
6.41222
6.38944
6.41645
6.4691
6.52732
6.57203
6.58649
6.55999
6.48723
6.35742
6.15047
15.8641
15.9518
15.6876
15.0843
14.2166
13.1782
12.0592
10.9377
9.8856
8.95861
8.17734
7.55335
7.09705
6.79443
6.60985
6.51691
6.48428
6.48657
6.5011
6.50802
6.49114
6.4405
6.35179
6.22366
6.05279
15.1321
15.2075
15.023
14.5681
13.8843
13.0382
12.1011
11.1388
10.2101
9.36468
8.63304
8.02846
7.55791
7.21235
6.97002
6.80925
6.72102
6.682
6.66876
6.65995
6.63858
6.59437
6.52199
6.41854
6.28312
14.4842
14.5281
14.3889
14.0456
13.5161
12.8428
12.0779
11.2737
10.4782
9.73275
9.06833
8.50239
8.04234
7.68557
7.41991
7.23034
7.10366
7.02732
6.99027
6.97115
6.95319
6.92444
6.87764
6.80844
6.71373
13.9298
13.9299
13.8065
13.5373
13.1265
12.5982
11.9873
11.3324
10.6714
10.037
9.45443
8.94251
8.51137
8.16318
7.89391
7.69444
7.55629
7.46823
7.41468
7.38516
7.36922
7.35386
7.33021
7.29556
7.2439
13.4748
13.4261
13.297
13.0686
12.7395
12.3221
11.8387
11.3157
10.78
10.2559
9.76419
9.32091
8.93636
8.6154
8.35875
8.16291
8.02201
7.92825
7.87175
7.84249
7.82872
7.82276
7.81847
7.80928
7.79041
13.1199
13.0238
12.8769
12.6647
12.3845
12.0436
11.6558
11.2377
10.8074
10.3825
9.97852
9.60814
9.28024
9.00057
8.77258
8.59497
8.46386
8.37472
8.32125
8.29615
8.2909
8.29713
8.30671
8.31541
8.3205
12.8613
12.7229
12.5542
12.3439
12.0897
11.7964
11.4718
11.1274
10.7758
10.4293
10.099
9.79384
9.52072
9.28413
9.08841
8.93536
8.82147
8.74362
8.69797
8.6796
8.68259
8.70061
8.72743
8.7576
8.78569
12.6918
12.517
12.328
12.1149
11.8747
11.6082
11.3215
11.0234
10.7232
10.4299
10.1516
9.89481
9.66422
9.46307
9.29369
9.15857
9.0575
8.98754
8.94566
8.92858
8.93259
8.95348
8.9867
9.02779
9.07232
12.6029
12.3979
12.1938
11.9787
11.7463
11.4961
11.2325
10.9618
10.6916
10.4293
10.1811
9.95233
9.74652
9.56595
9.41196
9.2851
9.18564
9.1127
9.06425
9.03761
9.03004
9.03873
9.06074
9.09306
9.13249
12.5883
12.3619
12.1471
11.9303
11.7041
11.4663
11.2188
10.966
10.7138
10.4681
10.2344
10.0173
9.82007
9.64463
9.49201
9.36244
9.25555
9.17031
9.10493
9.05779
9.02717
9.01089
9.00678
9.01282
9.02695
12.6516
12.4074
12.1828
11.9642
11.7432
11.5158
11.2817
11.0433
10.8043
10.5695
10.3433
10.1297
9.93184
9.75174
9.59059
9.4488
9.32617
9.22193
9.13486
9.0634
9.0057
8.95984
8.92424
8.89763
8.8786
12.7897
12.5299
12.2956
12.0737
11.8555
11.6358
11.4127
11.1866
10.9595
10.7346
10.515
10.3039
10.1041
9.9175
9.74557
9.58901
9.44803
9.32237
9.21139
9.1141
9.02931
8.95565
8.89168
8.83599
8.78744
12.9944
12.7221
12.4784
12.2514
12.0328
11.8172
11.6015
11.385
11.1682
10.9526
10.7404
10.5337
10.3347
10.1449
9.96579
9.7982
9.64262
9.49919
9.36772
9.24783
9.13887
9.04004
8.95042
8.86905
8.79523
13.2542
12.9763
12.727
12.4963
12.2766
12.0627
11.8513
11.6411
11.4318
11.2239
11.0186
10.8172
10.6213
10.432
10.2505
10.0776
9.91382
9.75949
9.61467
9.47926
9.35299
9.23545
9.12616
9.02458
8.93042
13.5815
13.3104
13.0643
12.8351
12.6166
12.4044
12.1962
11.9905
11.7868
11.5853
11.3867
11.1917
11.0012
10.8163
10.6377
10.466
10.3018
10.1453
9.99663
9.85585
9.7228
9.59722
9.47882
9.36724
9.26241
14.1054
13.868
13.6454
13.4328
13.2273
13.0271
12.831
12.6382
12.4486
12.2622
12.0794
11.9006
11.7266
11.5579
11.3949
11.2382
11.088
10.9445
10.8078
10.6776
10.5539
10.4365
10.325
10.219
10.1185
15.6392
15.5491
15.456
15.3556
15.2515
15.1453
15.0376
14.9286
14.8188
14.7086
14.5985
14.4889
14.3804
14.2734
14.1683
14.0654
13.9648
13.8666
13.7708
13.6774
13.5861
13.4968
13.4093
13.3232
13.2387
35.4196
36.151
36.7731
37.2833
37.6942
38.0144
38.2513
38.4118
38.5025
38.5299
38.5001
38.4194
38.2935
38.1281
37.9286
37.6998
37.4465
37.1729
36.8828
36.5797
36.2669
35.9469
35.6223
35.2951
34.9673
7.79724
8.05135
15.2345
12.711
13.8574
12.3126
11.2289
10.8109
9.85808
9.3428
9.02069
8.23177
8.19504
7.76722
6.92234
7.18936
6.67033
5.93121
6.32731
5.87971
5.35543
5.86644
5.55168
5.20808
5.84547
5.62663
5.39494
6.12866
5.96796
5.79988
6.60085
6.48075
6.34973
7.17745
7.09746
7.00308
7.76112
7.72137
7.66836
8.31892
8.30834
8.28808
8.80722
8.82356
8.83507
9.11293
9.15072
9.18487
9.17216
9.21341
9.25524
9.04525
9.06747
9.09282
8.86693
8.85949
8.85545
8.74911
8.71504
8.68418
8.7349
8.67935
8.62738
8.85215
8.77893
8.70954
9.17434
9.09105
9.0114
10.0336
9.95237
9.87402
13.1651
13.0923
13.0197
34.6797
34.3946
34.1118
4.36194
5.52125
6.98954
8.04383
8.8867
9.58038
10.1798
10.7106
11.1889
11.6252
12.0268
12.3992
12.7464
13.0717
13.3781
13.6677
13.9426
14.2045
14.4552
14.6959
14.9281
15.1529
15.3716
15.5851
15.7946
16.0011
16.2055
16.4088
16.612
16.816
17.0219
17.2307
17.4434
17.6612
17.8854
18.1174
18.3589
18.6116
18.8779
19.1606
19.4611
19.7712
20.0906
20.4194
20.7574
21.1053
21.4632
21.8314
22.2098
22.5984
22.9968
23.4044
23.8205
24.2437
24.6724
25.104
25.5354
25.9618
26.3771
26.7728
27.1376
27.4564
27.7087
27.8691
27.9132
27.8243
27.5995
27.2325
26.7099
26.0034
25.0941
23.9369
22.5428
20.9578
19.2402
17.6228
16.0059
14.3021
12.3483
10.9422
9.09539
6.03397
6.72223
7.12522
7.32751
7.40422
7.40237
7.36218
7.3043
7.24031
7.17647
7.11606
7.06067
7.01094
6.96697
6.92857
6.8954
6.86704
6.84307
6.82307
6.80666
6.7935
6.78328
6.77576
6.77071
6.76798
6.76745
6.76906
6.77279
6.77867
6.78681
6.79737
6.81057
6.82674
6.84628
6.86974
6.89777
6.93116
6.97137
7.01971
7.07605
7.13138
7.18818
7.2468
7.30745
7.37033
7.43562
7.50353
7.57427
7.64808
7.72519
7.80582
7.89021
7.97852
8.07092
8.16745
8.26806
8.3725
8.48029
8.59059
8.7021
8.81294
8.9212
9.02616
9.12512
9.20158
9.23328
9.20688
9.11246
8.92092
8.67105
8.37897
8.06011
7.76775
7.71538
8.1378
8.7486
9.29469
9.63714
14.8608
11.1153
6.14224
6.24554
6.3042
6.26003
6.14166
5.98627
5.82355
5.66726
5.52382
5.39544
5.28228
5.18344
5.09758
5.02323
4.95894
4.90337
4.85533
4.81377
4.77778
4.7466
4.71958
4.69617
4.67593
4.65849
4.64357
4.63093
4.62042
4.61193
4.60539
4.60079
4.59816
4.59758
4.59916
4.60305
4.60944
4.61856
4.63068
4.6461
4.66513
4.68807
4.71442
4.74188
4.77165
4.80417
4.83982
4.879
4.92211
4.96962
5.02203
5.07985
5.14366
5.21403
5.29158
5.37691
5.47058
5.57312
5.68492
5.80621
5.93695
6.07671
6.22446
6.37838
6.5359
6.69334
6.8438
6.96923
7.05117
7.06954
7.00549
6.85173
6.59212
6.26142
5.89814
5.63938
5.75056
6.24432
7.02099
8.03618
15.4445
12.3036
6.05696
5.79252
5.66918
5.50415
5.31369
5.11372
4.92386
4.75195
4.60038
4.46885
4.35583
4.25929
4.1771
4.10725
4.04788
3.9974
3.95441
3.91773
3.88637
3.8595
3.83644
3.81662
3.79959
3.78498
3.77249
3.7619
3.75304
3.74578
3.74006
3.73584
3.73312
3.73195
3.73238
3.73451
3.73849
3.74445
3.7526
3.76316
3.77636
3.79249
3.81189
3.83392
3.85841
3.88602
3.91724
3.95253
3.99238
4.03734
4.088
4.14499
4.20901
4.28078
4.3611
4.45077
4.55063
4.66151
4.7842
4.91941
5.06767
5.22926
5.40401
5.59096
5.78797
5.99206
6.19976
6.39915
6.57261
6.69788
6.74793
6.6978
6.52246
6.19781
5.71941
5.26624
5.06709
5.29183
5.93986
7.1393
15.3029
13.1066
5.89654
5.40177
5.17901
4.95969
4.73831
4.52726
4.33589
4.16781
4.02306
3.89994
3.79609
3.70896
3.63612
3.57534
3.52467
3.48243
3.44719
3.41775
3.39314
3.37254
3.35527
3.3408
3.32868
3.31856
3.31017
3.30329
3.29776
3.29347
3.29034
3.28835
3.28749
3.2878
3.28933
3.29217
3.29644
3.3023
3.30991
3.31949
3.33127
3.34554
3.3626
3.38281
3.40556
3.43144
3.46094
3.49456
3.53281
3.57625
3.62551
3.68125
3.74422
3.81523
3.89516
3.98496
4.08564
4.19831
4.32411
4.46419
4.6197
4.79171
4.98103
5.18802
5.41222
5.65196
5.90489
6.16545
6.42271
6.65897
6.84639
6.94604
6.90869
6.68025
6.22968
5.62563
5.09168
5.02879
5.4818
6.6922
14.8436
13.6686
5.73972
5.07998
4.79721
4.55038
4.31828
4.10666
3.92031
3.76011
3.6246
3.51129
3.41733
3.3399
3.2764
3.22451
3.18224
3.14789
3.12005
3.09752
3.07934
3.06473
3.05302
3.04371
3.03636
3.03066
3.02633
3.02318
3.02105
3.01985
3.0195
3.01997
3.02126
3.02341
3.02646
3.03051
3.03566
3.04205
3.04987
3.05929
3.07057
3.08395
3.09972
3.11822
3.13968
3.16392
3.19154
3.22305
3.25894
3.29979
3.34622
3.39889
3.45857
3.52608
3.60238
3.68848
3.78553
3.89481
4.01773
4.15584
4.31081
4.48445
4.67858
4.89493
5.13496
5.39957
5.68883
6.00101
6.33087
6.66718
6.98909
7.26023
7.42279
7.39524
7.08488
6.46269
5.71034
5.25963
5.42813
6.53026
14.2464
14.1044
5.61065
4.81814
4.49398
4.23201
3.99634
3.78763
3.60761
3.45548
3.32884
3.22463
3.13968
3.071
3.01587
2.97194
2.93717
2.90988
2.88865
2.87232
2.85994
2.85073
2.84406
2.83944
2.83646
2.83481
2.83422
2.83453
2.83557
2.83726
2.83953
2.84235
2.84571
2.84964
2.8542
2.85945
2.86551
2.8725
2.88059
2.88996
2.90083
2.91345
2.9281
2.94509
2.96477
2.98708
3.01245
3.04136
3.07431
3.11183
3.15453
3.20308
3.25822
3.32078
3.39172
3.47209
3.56309
3.66611
3.78269
3.91464
4.06399
4.23307
4.4245
4.64118
4.88619
5.16264
5.47341
5.82055
6.20411
6.61997
7.05648
7.48917
7.87201
8.12841
8.11087
7.65836
6.79382
5.92277
5.76718
6.74913
13.8882
14.4875
5.51197
4.60422
4.24753
3.97581
3.73924
3.53426
3.36039
3.21563
3.09692
3.00077
2.92378
2.8628
2.81504
2.77812
2.74998
2.72893
2.71358
2.70276
2.69555
2.69117
2.68904
2.68864
2.6896
2.69161
2.69444
2.69789
2.70184
2.70619
2.71087
2.71586
2.72114
2.72674
2.7327
2.73909
2.746
2.75354
2.76187
2.77117
2.78163
2.7935
2.80704
2.82254
2.84032
2.86071
2.88377
2.90998
2.93985
2.97388
3.01265
3.05682
3.10709
3.16427
3.2293
3.30322
3.38721
3.48268
3.5912
3.71467
3.85529
4.01565
4.19886
4.40855
4.64897
4.92498
5.24193
5.60536
6.01976
6.48801
7.00783
7.57119
8.16098
8.71418
9.08803
9.04341
8.34854
7.14224
6.47409
7.2021
13.7605
14.8653
5.44159
4.42859
4.04315
3.76357
3.52686
3.3255
3.1572
3.01902
2.90731
2.81828
2.74831
2.69413
2.65289
2.62216
2.5999
2.5844
2.57427
2.56837
2.56577
2.56574
2.56767
2.57109
2.57562
2.58097
2.5869
2.59324
2.59986
2.60666
2.61359
2.62061
2.6277
2.63488
2.64219
2.64968
2.65743
2.66555
2.67418
2.68346
2.69362
2.70486
2.71745
2.73168
2.74786
2.76635
2.78726
2.81101
2.83803
2.86884
2.90396
2.944
2.98966
3.0417
3.10099
3.16852
3.24543
3.33304
3.43289
3.54679
3.67693
3.82594
3.99703
4.19415
4.42217
4.68705
4.99596
5.35744
5.77907
6.27087
6.84037
7.49687
8.23803
9.0353
9.80038
10.3221
10.2159
9.14119
7.65307
7.84814
13.9613
15.2776
5.39814
4.28483
3.87131
3.58379
3.34672
3.14854
2.98521
2.8529
2.74746
2.66478
2.60107
2.55295
2.51752
2.49232
2.47528
2.46472
2.45926
2.45776
2.45931
2.46319
2.4688
2.47568
2.48346
2.49186
2.50066
2.50967
2.51878
2.52789
2.53695
2.54591
2.55476
2.56351
2.57218
2.58082
2.5895
2.59831
2.60737
2.61683
2.62688
2.63775
2.64968
2.66295
2.67788
2.6948
2.71399
2.73571
2.76038
2.78847
2.82048
2.85698
2.89861
2.94609
3.00021
3.06189
3.13217
3.21227
3.30357
3.40776
3.52682
3.66322
3.81998
4.00094
4.21097
4.45631
4.74491
5.08678
5.4939
5.98129
6.56496
7.26341
8.09072
9.05124
10.1185
11.1754
11.8918
11.5956
9.71167
8.867
14.7215
15.7865
5.38306
4.16928
3.72598
3.42924
3.19109
2.99553
2.83665
2.70967
2.60992
2.53301
2.47496
2.4323
2.40207
2.3818
2.36943
2.36329
2.362
2.36445
2.36973
2.37714
2.3861
2.39614
2.40692
2.41814
2.4296
2.44113
2.45261
2.46393
2.47505
2.48593
2.49654
2.50689
2.517
2.52691
2.53666
2.54635
2.55607
2.56596
2.57621
2.58703
2.59867
2.61141
2.62555
2.64141
2.65935
2.67959
2.70249
2.7285
2.75807
2.79173
2.83007
2.87374
2.92347
2.98008
3.04451
3.11782
3.20125
3.29626
3.4046
3.52839
3.67031
3.83375
4.02311
4.24421
4.50475
4.8149
5.18839
5.64298
6.20131
6.89125
7.74176
8.78446
10.0397
11.4871
12.9835
14.0194
13.4232
10.8069
16.245
16.452
5.40879
4.08185
3.60376
3.29562
3.05551
2.86201
2.70715
2.58508
2.49059
2.41895
2.36604
2.32829
2.30272
2.28685
2.27865
2.27644
2.27887
2.28486
2.29351
2.30413
2.31614
2.32911
2.34267
2.35654
2.37053
2.38446
2.39821
2.41169
2.42485
2.43765
2.45006
2.46208
2.47373
2.48504
2.49606
2.50685
2.5175
2.52813
2.53892
2.55008
2.56186
2.57452
2.58837
2.60372
2.62093
2.64025
2.66201
2.6866
2.71443
2.74599
2.78181
2.82248
2.86866
2.92107
2.98055
3.04802
3.12454
3.21137
3.30995
3.42207
3.54993
3.69634
3.86498
4.06073
4.29027
4.56278
4.89104
5.29289
5.79304
6.42505
7.23317
8.27216
9.59991
11.2701
13.3015
15.5174
17.0924
15.4911
18.4771
17.425
5.45214
4.01681
3.50064
3.17914
2.93704
2.74591
2.59485
2.47737
2.38773
2.32091
2.27261
2.23923
2.21778
2.2058
2.20126
2.20253
2.20828
2.21744
2.22914
2.2427
2.25754
2.27322
2.2894
2.3058
2.3222
2.33845
2.35442
2.37004
2.38523
2.39997
2.41422
2.42799
2.44129
2.45414
2.46659
2.4787
2.49055
2.50223
2.5139
2.52578
2.53812
2.55117
2.56523
2.58059
2.59759
2.61657
2.63779
2.66159
2.68836
2.71853
2.75257
2.79102
2.83446
2.88354
2.93898
3.00159
3.07226
3.15205
3.24215
3.344
3.45936
3.59043
3.74007
3.91209
4.11173
4.34631
4.6263
4.96682
5.39
5.92844
6.63013
7.56447
8.82883
10.5489
12.8634
15.9069
19.6615
23.3013
22.2617
18.7274
5.6544
3.9915
3.42384
3.0808
2.83491
2.64696
2.49993
2.38681
2.30159
2.23905
2.1948
2.16521
2.14731
2.13867
2.13731
2.14163
2.15033
2.16235
2.17684
2.19311
2.2106
2.22886
2.24754
2.26636
2.2851
2.3036
2.32175
2.33946
2.35667
2.37334
2.38945
2.40501
2.42001
2.4345
2.44852
2.46212
2.47536
2.48836
2.50123
2.51419
2.52747
2.54133
2.55604
2.57189
2.58921
2.60834
2.62956
2.65316
2.67948
2.70889
2.74183
2.77876
2.82021
2.86675
2.919
2.97765
3.04347
3.11735
3.20026
3.29336
3.39801
3.5159
3.64913
3.80049
3.97376
4.17423
4.40946
4.69048
5.0337
5.46412
6.02069
6.76535
7.79821
9.28032
11.468
14.7555
19.7804
27.8857
44.5213
14.347
5.60658
3.98757
3.37155
3.00392
2.75026
2.56485
2.42357
2.31513
2.23405
2.17526
2.13443
2.10802
2.09309
2.08728
2.08866
2.09566
2.10699
2.12162
2.13869
2.15751
2.17752
2.19825
2.21933
2.24048
2.26146
2.28213
2.30236
2.32207
2.34121
2.35975
2.37766
2.39494
2.41162
2.42774
2.44333
2.45849
2.47327
2.48776
2.50207
2.51638
2.53092
2.54593
2.56168
2.57844
2.59651
2.61623
2.63793
2.66182
2.68821
2.71742
2.74983
2.78586
2.82597
2.87064
2.92042
2.97589
3.03773
3.10665
3.1835
3.26921
3.36484
3.47164
3.59115
3.7253
3.87663
4.04868
4.24636
4.47672
4.74999
5.08142
5.49434
6.02547
6.73482
7.72385
9.1696
11.381
14.8647
20.4337
29.25
10.6575
5.35423
3.95436
3.32435
2.94524
2.6862
2.5027
2.36745
2.26506
2.18843
2.13317
2.09535
2.07161
2.0592
2.05581
2.05959
2.069
2.08275
2.09981
2.11933
2.14058
2.163
2.18608
2.20943
2.23274
2.25578
2.2784
2.30048
2.32195
2.34277
2.36291
2.38237
2.40116
2.4193
2.43685
2.45391
2.47057
2.48688
2.5029
2.51873
2.53453
2.55051
2.56692
2.58399
2.60196
2.62113
2.64182
2.66436
2.68896
2.71585
2.74531
2.77767
2.81328
2.85256
2.89592
2.94382
2.99673
3.05523
3.11996
3.19162
3.27099
3.35894
3.45642
3.56451
3.68451
3.81806
3.96739
4.1355
4.32646
4.54585
4.80141
5.10393
5.4684
5.91543
6.47253
7.17378
8.0544
9.13731
10.3984
11.6967
8.36396
5.02559
3.87434
3.27701
2.90519
2.64808
2.46648
2.33645
2.24107
2.17025
2.11916
2.08449
2.06337
2.05334
2.05225
2.05832
2.07003
2.08609
2.10547
2.12728
2.15081
2.17543
2.20061
2.22591
2.251
2.27562
2.29965
2.32301
2.34565
2.36755
2.38872
2.40915
2.42888
2.44797
2.46657
2.48478
2.50269
2.5203
2.53768
2.55491
2.57215
2.58957
2.60741
2.62591
2.64529
2.66579
2.68771
2.71139
2.73698
2.76467
2.7947
2.82734
2.86289
2.9017
2.94416
2.99063
3.04142
3.09703
3.15803
3.22509
3.29887
3.38009
3.46947
3.56788
3.67609
3.79509
3.92627
4.07148
4.23297
4.41353
4.61668
4.84676
5.10869
5.40744
5.7471
6.12965
6.54987
6.98923
7.40903
7.73389
6.80017
4.70576
3.77811
3.24442
2.89339
2.64582
2.469
2.34275
2.25385
2.19079
2.14568
2.11521
2.09736
2.09013
2.09161
2.10011
2.11417
2.13241
2.15383
2.17756
2.20287
2.22911
2.25571
2.28211
2.30797
2.33303
2.3572
2.3805
2.40299
2.42472
2.4457
2.46593
2.48557
2.50479
2.52374
2.54247
2.56103
2.57944
2.59773
2.61599
2.63432
2.65292
2.67198
2.69175
2.71246
2.73436
2.75768
2.78265
2.80939
2.83807
2.86887
2.90201
2.93775
2.97635
3.01808
3.06323
3.11206
3.16493
3.22244
3.28524
3.35387
3.42887
3.51089
3.60082
3.69886
3.80541
3.92153
4.04842
4.18746
4.33985
4.50702
4.69058
4.89177
5.11051
5.3438
5.58648
5.82988
6.05621
6.23888
6.35309
5.74465
4.43358
3.7082
3.24884
2.92951
2.69942
2.53303
2.4141
2.3319
2.27729
2.24002
2.21519
2.20169
2.19813
2.20267
2.21358
2.22944
2.24903
2.27141
2.29574
2.32129
2.34737
2.37335
2.39867
2.42307
2.44602
2.46764
2.48817
2.50792
2.52708
2.54566
2.56384
2.58183
2.59981
2.61781
2.63588
2.65402
2.67226
2.69061
2.70913
2.7279
2.74707
2.76681
2.78735
2.80894
2.83186
2.85637
2.88255
2.9104
2.93999
2.97151
3.00511
3.041
3.07938
3.12045
3.16439
3.2113
3.26156
3.31591
3.37486
3.43881
3.50816
3.58335
3.66484
3.75296
3.84811
3.95088
4.06209
4.18309
4.31375
4.45448
4.60615
4.7687
4.94116
5.11938
5.2969
5.46527
5.61294
5.72443
5.78409
5.10032
4.26793
3.71536
3.33296
3.05628
2.85587
2.71272
2.6113
2.54113
2.49438
2.46294
2.44277
2.43241
2.43034
2.43506
2.44509
2.45918
2.47629
2.49584
2.51703
2.53913
2.56144
2.58324
2.60385
2.6219
2.63759
2.65142
2.66406
2.67645
2.68956
2.70285
2.7164
2.7303
2.74472
2.75971
2.77523
2.79128
2.80784
2.82492
2.84251
2.86066
2.87946
2.89904
2.91958
2.9413
2.96446
2.98944
3.0161
3.04445
3.07457
3.10644
3.14009
3.17574
3.21353
3.25362
3.29611
3.34118
3.38906
3.44049
3.49572
3.55511
3.61898
3.68768
3.7615
3.84071
3.92558
4.01641
4.1136
4.21765
4.32889
4.4481
4.57603
4.71236
4.85557
4.99984
5.1412
5.27348
5.38818
5.47463
5.52234
4.81381
4.27622
3.87209
3.57821
3.36009
3.20195
3.08905
3.00469
2.93955
2.88994
2.85231
2.82586
2.80816
2.79773
2.7933
2.79387
2.79853
2.80645
2.81708
2.82967
2.8435
2.85783
2.87173
2.88457
2.89528
2.90437
2.91173
2.91751
2.92227
2.92695
2.93171
2.93684
2.9429
2.95075
2.96005
2.97056
2.98227
2.99519
3.00925
3.0244
3.04058
3.05782
3.07617
3.09573
3.11668
3.13926
3.16372
3.18972
3.21742
3.24683
3.27794
3.31084
3.34558
3.38211
3.42059
3.46121
3.5042
3.54996
3.5987
3.65021
3.70497
3.76328
3.82545
3.89171
3.96226
4.03723
4.11678
4.20107
4.29063
4.38626
4.48856
4.59726
4.71155
4.82977
4.9491
5.06604
5.17579
5.27193
5.34669
5.39252
4.85555
4.50809
4.23541
4.03725
3.88147
3.75016
3.63648
3.54158
3.4617
3.39459
3.34152
3.30043
3.2689
3.24516
3.22783
3.21582
3.20822
3.2043
3.20322
3.20432
3.20691
3.21044
3.21426
3.21826
3.22288
3.22732
3.23096
3.2335
3.23468
3.23407
3.23257
3.23079
3.2293
3.22884
3.22969
3.23221
3.23689
3.24398
3.25313
3.2642
3.27701
3.29144
3.30743
3.32502
3.34436
3.3657
3.38855
3.41283
3.43857
3.46582
3.4947
3.52534
3.55766
3.59171
3.6276
3.66546
3.70545
3.74799
3.79286
3.84025
3.89037
3.94299
3.99845
4.05701
4.11874
4.18382
4.25238
4.32489
4.40193
4.48388
4.57077
4.66228
4.7577
4.85571
4.95431
5.05081
5.14161
5.22204
5.28665
5.33012
5.1575
4.9358
4.75583
4.60178
4.46498
4.34489
4.23746
4.14137
4.05571
3.98094
3.91823
3.8656
3.82149
3.78458
3.7537
3.7279
3.70638
3.6884
3.67332
3.66057
3.64961
3.64013
3.63199
3.62483
3.61846
3.61252
3.60693
3.60185
3.59718
3.59252
3.58776
3.58284
3.57769
3.57201
3.56668
3.56252
3.56021
3.56028
3.56306
3.56892
3.57737
3.58808
3.60086
3.61569
3.63269
3.65167
3.6719
3.69339
3.71613
3.74016
3.76553
3.79229
3.82052
3.85043
3.88207
3.91541
3.95051
3.98758
4.0268
4.06858
4.1126
4.15889
4.20754
4.25827
4.31118
4.36665
4.4249
4.48634
4.55122
4.61972
4.69184
4.76728
4.84539
4.92513
5.00499
5.08297
5.15644
5.22208
5.27609
5.31471
5.62959
5.46529
5.32139
5.19462
5.07967
4.9737
4.87486
4.78299
4.69883
4.62308
4.55525
4.49463
4.44051
4.39221
4.34897
4.31009
4.27502
4.2432
4.21412
4.18742
4.16278
4.13984
4.11831
4.09804
4.07883
4.06077
4.04426
4.02932
4.01571
4.00322
3.99172
3.98112
3.97136
3.96242
3.95448
3.94772
3.94214
3.93803
3.9363
3.93784
3.94232
3.94936
3.95877
3.9706
3.98464
3.99985
4.01619
4.03361
4.05211
4.0717
4.09242
4.11429
4.13737
4.16174
4.18747
4.2146
4.24323
4.27357
4.30566
4.33959
4.37544
4.41358
4.45371
4.49573
4.53983
4.58594
4.63377
4.6837
4.73607
4.79101
4.84848
4.90823
4.96974
5.03218
5.09442
5.15498
5.21194
5.26298
5.30543
5.33664
6.20736
6.0686
5.94506
5.83241
5.72852
5.63155
5.53945
5.45142
5.36878
5.29221
5.22108
5.15449
5.09226
5.03449
4.98087
4.93091
4.88424
4.84052
4.79937
4.76044
4.72344
4.6881
4.65405
4.62144
4.59053
4.56168
4.53507
4.51055
4.48804
4.46747
4.44874
4.43181
4.41663
4.40321
4.39172
4.38228
4.37494
4.37001
4.36777
4.36764
4.36967
4.37384
4.38041
4.38875
4.39802
4.4082
4.41925
4.43118
4.44399
4.45771
4.47236
4.48799
4.50462
4.52232
4.54112
4.56107
4.58219
4.60458
4.62829
4.65338
4.6799
4.70792
4.73747
4.7688
4.80191
4.83649
4.87275
4.91078
4.95051
4.99181
5.03463
5.07892
5.1243
5.17014
5.21558
5.25952
5.3006
5.33717
5.36737
5.38932
6.88669
6.75943
6.63836
6.52575
6.42335
6.32844
6.23713
6.14768
6.06087
5.97828
5.90003
5.82608
5.75631
5.69059