/*--------------------------------*- C++ -*----------------------------------*\
| =========                 |                                                 |
| \\      /  F ield         | OpenFOAM: The Open Source CFD Toolbox           |
|  \\    /   O peration     | Version:  v2012                                 |
|   \\  /    A nd           | Website:  www.openfoam.com                      |
|    \\/     M anipulation  |                                                 |
\*---------------------------------------------------------------------------*/
FoamFile
{
    version     2.0;
    format      ascii;
    class       volScalarField;
    location    "503";
    object      p;
}
// * * * * * * * * * * * * * * * * * * * * * * * * * * * * * * * * * * * * * //

dimensions      [0 2 -2 0 0 0 0];


internalField   nonuniform List<scalar> 
6556
(
0.392754
0.392142
0.391811
0.391671
0.391611
0.391611
0.39167
0.39181
0.392142
0.392753
0.392073
0.391899
0.391729
0.391622
0.391573
0.391573
0.391622
0.391728
0.391899
0.392072
0.391602
0.391617
0.391549
0.391475
0.391439
0.391439
0.391474
0.391549
0.391616
0.391601
0.391316
0.391372
0.391336
0.391282
0.391257
0.391257
0.391281
0.391335
0.39137
0.391315
0.391086
0.391146
0.391123
0.391079
0.391058
0.391058
0.391077
0.391121
0.391144
0.391084
0.390866
0.390922
0.390903
0.390867
0.39085
0.390849
0.390866
0.390901
0.390919
0.390863
0.390651
0.3907
0.39068
0.390649
0.390634
0.390633
0.390647
0.390677
0.390695
0.390647
0.390439
0.390481
0.39046
0.39043
0.390416
0.390414
0.390426
0.390454
0.390474
0.390433
0.390229
0.390264
0.390242
0.390213
0.390198
0.390196
0.390207
0.390233
0.390254
0.390219
0.39002
0.390049
0.390025
0.389996
0.389981
0.389978
0.389988
0.390012
0.390033
0.390005
0.389812
0.389836
0.38981
0.389782
0.389765
0.38976
0.389768
0.38979
0.389812
0.389789
0.389605
0.389625
0.389598
0.389568
0.38955
0.389543
0.389548
0.389568
0.38959
0.38957
0.389402
0.389418
0.389389
0.389357
0.389335
0.389324
0.389326
0.389343
0.389365
0.389349
0.389203
0.389216
0.389185
0.389149
0.389121
0.389105
0.389102
0.389116
0.389136
0.389123
0.389013
0.389023
0.388987
0.388944
0.388908
0.388883
0.388873
0.388882
0.388902
0.388892
0.388836
0.388842
0.3888
0.388746
0.388695
0.388655
0.388634
0.388638
0.388661
0.388656
0.388678
0.38868
0.388627
0.388555
0.388482
0.388418
0.388378
0.388376
0.388408
0.388417
0.388551
0.388547
0.388478
0.388379
0.38827
0.388167
0.388093
0.388079
0.388139
0.388186
0.388471
0.388459
0.388367
0.388226
0.388059
0.387887
0.387742
0.387688
0.3878
0.388037
0.38846
0.388439
0.388317
0.388117
0.387865
0.387582
0.387304
0.387179
0.387405
0.388118
0.388553
0.388523
0.388362
0.388084
0.387708
0.387247
0.386692
0.386127
0.385504
0.381554
0.388789
0.388756
0.388555
0.388193
0.38769
0.387052
0.386213
0.385033
0.384429
0.386652
0.38922
0.389189
0.388953
0.388511
0.387886
0.387102
0.386128
0.384643
0.382741
0.384533
0.389898
0.389875
0.389607
0.389087
0.388338
0.38739
0.386252
0.38458
0.381634
0.382027
0.390873
0.390863
0.390563
0.389964
0.389087
0.387961
0.386618
0.384867
0.381645
0.381171
0.392202
0.392208
0.391874
0.391188
0.390177
0.388869
0.387301
0.385409
0.381995
0.380453
0.393944
0.393968
0.393594
0.392809
0.391643
0.390128
0.388289
0.386166
0.382603
0.379736
0.396163
0.396204
0.395787
0.394885
0.393536
0.39177
0.389598
0.387102
0.383342
0.379341
0.398938
0.398998
0.398527
0.397489
0.395926
0.393871
0.391318
0.388313
0.384213
0.379718
0.402356
0.402441
0.4019
0.400706
0.398906
0.396535
0.393597
0.390106
0.385596
0.380808
0.406503
0.406613
0.405992
0.404629
0.402567
0.399851
0.396506
0.392553
0.387722
0.382559
0.411478
0.411608
0.410901
0.409349
0.406992
0.403885
0.400076
0.395618
0.390457
0.384856
0.417392
0.417542
0.416735
0.414964
0.412271
0.408717
0.404368
0.399326
0.393682
0.387613
0.42437
0.424537
0.423612
0.421589
0.418511
0.414446
0.409474
0.403735
0.397441
0.390794
0.432542
0.432724
0.431662
0.429352
0.425836
0.421188
0.415503
0.408948
0.401824
0.394421
0.442048
0.442243
0.441024
0.438395
0.434388
0.429084
0.422588
0.415093
0.406961
0.398605
0.453033
0.453238
0.451846
0.448868
0.444326
0.4383
0.430903
0.422349
0.413046
0.403532
0.465639
0.465855
0.464278
0.460929
0.455819
0.449021
0.440654
0.430945
0.420333
0.409463
0.48
0.480228
0.478457
0.474726
0.469032
0.461439
0.452064
0.441141
0.429128
0.416754
0.496231
0.496468
0.494499
0.490387
0.484115
0.47573
0.46535
0.453205
0.439761
0.425793
0.514409
0.51465
0.51248
0.508
0.501173
0.492034
0.480693
0.467373
0.452532
0.436957
0.534555
0.534793
0.532424
0.527594
0.520255
0.510426
0.49821
0.483817
0.467681
0.450569
0.556631
0.556852
0.554283
0.549126
0.54133
0.530898
0.517926
0.50261
0.48535
0.466859
0.580524
0.580711
0.577933
0.572467
0.564272
0.553336
0.539753
0.523702
0.50554
0.485908
0.606043
0.606167
0.60316
0.597395
0.588855
0.577518
0.563477
0.546898
0.528094
0.507618
0.632912
0.632934
0.629664
0.623593
0.61475
0.603106
0.588758
0.57186
0.552684
0.531695
0.660769
0.660641
0.657057
0.650654
0.641533
0.629662
0.615141
0.598121
0.578832
0.557657
0.68917
0.688832
0.684866
0.678089
0.6687
0.656666
0.642091
0.625119
0.605948
0.584886
0.717582
0.716967
0.712539
0.705335
0.695682
0.683545
0.66902
0.652246
0.633387
0.612686
0.745373
0.744409
0.739439
0.731766
0.72187
0.709701
0.695334
0.678893
0.660508
0.640363
0.771789
0.7704
0.764836
0.756701
0.746634
0.734545
0.720469
0.704502
0.686736
0.667298
0.795886
0.794015
0.787913
0.77944
0.769357
0.757531
0.743928
0.728601
0.711595
0.692987
0.816463
0.814114
0.807742
0.799252
0.789463
0.77819
0.765315
0.750832
0.73474
0.717069
0.831618
0.829784
0.823722
0.815588
0.806503
0.796183
0.784359
0.770961
0.75595
0.739315
0.839486
0.839259
0.834876
0.827988
0.820233
0.811356
0.800949
0.788891
0.775122
0.759607
0.841797
0.842458
0.840595
0.83618
0.830595
0.823709
0.815091
0.804602
0.792192
0.77783
0.842091
0.84245
0.842226
0.840637
0.83782
0.833392
0.826909
0.8182
0.807232
0.794017
0.842073
0.841699
0.841903
0.842484
0.842381
0.840569
0.83642
0.829634
0.820164
0.808063
0.842692
0.841847
0.841937
0.843514
0.845489
0.846012
0.843892
0.838727
0.830574
0.819409
0.843801
0.843328
0.843739
0.845775
0.848721
0.850944
0.850678
0.847117
0.840638
0.830979
0.360113
0.363089
0.364968
0.366795
0.368387
0.369631
0.370404
0.370574
0.370233
0.369422
0.368181
0.366701
0.365098
0.363458
0.361967
0.360804
0.360062
0.359799
0.360058
0.360817
0.361953
0.363227
0.364303
0.364892
0.365086
0.368343
0.364627
0.364121
0.365059
0.366239
0.367313
0.36809
0.368366
0.368025
0.367154
0.365933
0.364517
0.363044
0.36164
0.360433
0.359514
0.358965
0.358835
0.35916
0.359926
0.361057
0.362402
0.363731
0.364674
0.365104
0.368654
0.365091
0.363899
0.364123
0.364832
0.36556
0.36609
0.366217
0.365851
0.36508
0.364035
0.362798
0.361493
0.360273
0.35926
0.358521
0.358107
0.358038
0.358327
0.358963
0.359901
0.361055
0.3623
0.36343
0.364214
0.367054
0.363977
0.362843
0.362952
0.363628
0.364315
0.364782
0.364857
0.364452
0.363664
0.36264
0.361453
0.360205
0.359049
0.358109
0.357442
0.357079
0.357028
0.357287
0.357836
0.358631
0.359598
0.360637
0.361655
0.362547
0.367306
0.362931
0.361275
0.361344
0.362181
0.362977
0.363523
0.363637
0.363268
0.362502
0.361475
0.360292
0.359072
0.357959
0.357061
0.356433
0.356094
0.356039
0.356256
0.356723
0.357399
0.358222
0.3591
0.359958
0.360836
0.368428
0.362663
0.360046
0.359946
0.360763
0.361644
0.362297
0.362505
0.362216
0.361506
0.360498
0.359323
0.358121
0.357035
0.35617
0.355576
0.355258
0.355201
0.355382
0.355777
0.356348
0.357042
0.357781
0.358474
0.35921
0.36895
0.362861
0.359705
0.35923
0.35978
0.360617
0.361286
0.361575
0.361374
0.360727
0.359745
0.358579
0.357395
0.356338
0.355507
0.354946
0.354653
0.354599
0.354755
0.35509
0.355569
0.356146
0.356752
0.357283
0.357857
0.369234
0.363578
0.360333
0.359313
0.359452
0.360103
0.360718
0.361003
0.360845
0.36025
0.35929
0.358132
0.356961
0.355928
0.355131
0.354605
0.354336
0.354289
0.354426
0.354715
0.35512
0.355599
0.35609
0.356488
0.35692
0.370362
0.364942
0.361644
0.360189
0.359957
0.360338
0.360798
0.360987
0.360778
0.360206
0.359242
0.358063
0.356883
0.355854
0.355075
0.354571
0.354323
0.354285
0.354412
0.354669
0.355019
0.355422
0.355824
0.356122
0.35643
0.372346
0.367015
0.363635
0.361879
0.361328
0.361427
0.361667
0.361694
0.361358
0.360667
0.359671
0.358429
0.357203
0.35614
0.355349
0.35485
0.354611
0.354582
0.354705
0.354943
0.355257
0.355606
0.355935
0.356157
0.356366
0.374866
0.369642
0.366225
0.364272
0.363448
0.363267
0.363283
0.363146
0.362675
0.361815
0.36067
0.359296
0.357961
0.356801
0.355946
0.355415
0.35517
0.355146
0.355273
0.355505
0.3558
0.356116
0.356392
0.356558
0.356684
0.377716
0.372643
0.369226
0.367157
0.366132
0.365724
0.36552
0.365187
0.364579
0.363617
0.362285
0.360757
0.359207
0.357866
0.356868
0.356244
0.355956
0.355929
0.356065
0.356303
0.356597
0.356901
0.357147
0.357264
0.357305
0.380775
0.3758
0.372394
0.37027
0.369127
0.368567
0.368196
0.367711
0.366955
0.365873
0.364494
0.362882
0.36103
0.359395
0.358148
0.357345
0.356952
0.356885
0.357022
0.357272
0.357581
0.357896
0.358142
0.358202
0.358105
0.38397
0.378959
0.375528
0.373362
0.372144
0.371483
0.371014
0.370455
0.369647
0.368536
0.367143
0.365501
0.363572
0.36155
0.359918
0.358783
0.35818
0.357999
0.358098
0.358347
0.358676
0.359036
0.359352
0.359377
0.358837
0.387302
0.382038
0.378475
0.376229
0.374925
0.374195
0.373683
0.37312
0.372355
0.37134
0.370022
0.368417
0.366611
0.364535
0.362442
0.360803
0.359737
0.359288
0.359292
0.359516
0.359837
0.360209
0.360595
0.360665
0.359351
0.390897
0.38513
0.381193
0.378718
0.377282
0.376486
0.375951
0.375414
0.374751
0.373941
0.372887
0.371489
0.369808
0.36796
0.365832
0.363819
0.362163
0.360999
0.360484
0.360566
0.360878
0.361226
0.361618
0.362068
0.36267
0.394933
0.388394
0.383806
0.380888
0.379208
0.378275
0.377683
0.377163
0.376624
0.376034
0.375271
0.374244
0.372952
0.371405
0.369809
0.368026
0.366186
0.364388
0.362958
0.362083
0.361787
0.362039
0.362798
0.364047
0.365667
0.39966
0.392046
0.386571
0.382987
0.380854
0.379647
0.378931
0.378402
0.377944
0.3775
0.37699
0.376343
0.375561
0.374685
0.373755
0.372754
0.371617
0.370611
0.369683
0.368704
0.36801
0.367878
0.368508
0.370239
0.373372
0.405491
0.396496
0.389831
0.3853
0.382461
0.380791
0.379827
0.379222
0.378779
0.37842
0.378091
0.377766
0.377449
0.377161
0.376972
0.376917
0.376988
0.377289
0.377708
0.378279
0.379117
0.380342
0.381887
0.384281
0.387945
0.412884
0.402242
0.394051
0.388236
0.384392
0.382004
0.380586
0.379747
0.379235
0.378918
0.378701
0.378579
0.378588
0.378743
0.379072
0.379656
0.380562
0.38181
0.383353
0.385162
0.387228
0.389503
0.391907
0.394477
0.397234
0.422291
0.409796
0.399779
0.392336
0.387151
0.383737
0.381595
0.380303
0.379547
0.379136
0.378968
0.378994
0.379216
0.379649
0.380306
0.381251
0.382572
0.384311
0.386388
0.388694
0.391186
0.393826
0.396518
0.39913
0.401546
0.434134
0.419671
0.4076
0.398216
0.391343
0.386562
0.383386
0.381368
0.380153
0.379484
0.379204
0.379242
0.379581
0.380207
0.381107
0.382279
0.383768
0.385653
0.387909
0.390384
0.392965
0.395611
0.39826
0.400806
0.403133
0.448753
0.432326
0.418075
0.406505
0.397624
0.391127
0.386573
0.383514
0.38156
0.380409
0.379847
0.379743
0.38004
0.380712
0.381747
0.383128
0.384818
0.386788
0.389019
0.391431
0.393922
0.396431
0.39891
0.401293
0.4035
0.466343
0.448089
0.431672
0.417785
0.406647
0.398109
0.391823
0.38737
0.384351
0.382425
0.381329
0.38088
0.38097
0.381545
0.382588
0.38408
0.385905
0.387921
0.390071
0.392348
0.394702
0.397056
0.399359
0.401562
0.403613
0.486901
0.46709
0.448683
0.432505
0.418982
0.408155
0.399813
0.39361
0.389166
0.386124
0.384184
0.383115
0.38276
0.383037
0.383931
0.385351
0.387095
0.389017
0.391075
0.393259
0.3955
0.397722
0.399881
0.401934
0.40384
0.510195
0.489207
0.469139
0.450879
0.435015
0.421788
0.411154
0.402884
0.396659
0.392135
0.388996
0.386973
0.385862
0.385551
0.386011
0.387073
0.388511
0.39023
0.392173
0.394259
0.396392
0.398505
0.400546
0.402469
0.404255
0.535769
0.514043
0.492765
0.472802
0.45484
0.439287
0.426277
0.41573
0.407424
0.401071
0.396365
0.393016
0.390782
0.389518
0.389174
0.389604
0.390587
0.391972
0.393651
0.395521
0.397481
0.399452
0.401362
0.403171
0.404863
0.562979
0.54096
0.518977
0.497812
0.478171
0.460571
0.445299
0.432432
0.421878
0.413434
0.406841
0.40182
0.398098
0.39548
0.393976
0.393539
0.393865
0.394688
0.395887
0.397364
0.399013
0.400737
0.402453
0.404104
0.405673
0.591076
0.569159
0.546952
0.525123
0.504329
0.485127
0.46791
0.452886
0.440099
0.429459
0.420785
0.413845
0.408381
0.404135
0.401064
0.399344
0.398754
0.398811
0.39932
0.400202
0.401358
0.402676
0.404065
0.405454
0.406794
0.619291
0.597784
0.575754
0.553745
0.532333
0.512054
0.493345
0.476509
0.461702
0.44895
0.438171
0.429209
0.421863
0.415901
0.411118
0.407633
0.405589
0.404623
0.404283
0.404388
0.404846
0.405564
0.406452
0.40743
0.408431
0.646932
0.626046
0.604475
0.582655
0.561072
0.540209
0.520502
0.502295
0.485825
0.471211
0.458472
0.447541
0.438289
0.430553
0.424145
0.418947
0.41503
0.412398
0.41082
0.40999
0.409631
0.409603
0.409836
0.410246
0.410755
0.67344
0.653299
0.632352
0.610954
0.589508
0.568441
0.548157
0.529011
0.51128
0.495151
0.480719
0.467999
0.456942
0.447452
0.439407
0.432681
0.427147
0.422763
0.419502
0.417192
0.415626
0.41465
0.414129
0.413893
0.413817
0.698413
0.679076
0.658825
0.637954
0.61681
0.595768
0.5752
0.555452
0.536816
0.519516
0.503701
0.48945
0.476778
0.46565
0.455996
0.44773
0.440748
0.434953
0.430195
0.426358
0.423397
0.421182
0.419545
0.418349
0.417487
0.721595
0.703074
0.683517
0.663185
0.642387
0.621466
0.60077
0.580631
0.561344
0.543151
0.526235
0.510718
0.496664
0.484085
0.472954
0.463218
0.4548
0.447612
0.441543
0.436488
0.432333
0.428922
0.426121
0.423879
0.422135
0.74284
0.725106
0.706191
0.686342
0.665852
0.645046
0.624264
0.60383
0.584038
0.565141
0.54734
0.530785
0.515572
0.50175
0.489325
0.478273
0.46854
0.460057
0.452733
0.44647
0.441159
0.436686
0.432943
0.429841
0.427287
0.761988
0.744973
0.726612
0.707157
0.686895
0.666152
0.645267
0.624566
0.604344
0.58486
0.566327
0.548912
0.532733
0.517865
0.504339
0.492153
0.481276
0.471654
0.463213
0.455867
0.449521
0.444075
0.439426
0.435478
0.432135
0.779029
0.762618
0.744658
0.725423
0.705225
0.684418
0.663359
0.642372
0.621749
0.601748
0.58259
0.564453
0.547471
0.531733
0.51729
0.504157
0.49232
0.481738
0.472352
0.464087
0.456859
0.450575
0.44514
0.440459
0.436441
0.793818
0.777841
0.760112
0.74098
0.720778
0.699857
0.678591
0.657319
0.636333
0.615889
0.596209
0.577479
0.559841
0.543396
0.528207
0.514303
0.501681
0.490313
0.480149
0.471126
0.463166
0.456184
0.450092
0.444798
0.440214
0.805613
0.789835
0.772183
0.753021
0.732721
0.711658
0.690185
0.668633
0.647298
0.626446
0.606306
0.587069
0.568886
0.551867
0.536084
0.521575
0.508348
0.496381
0.485633
0.476046
0.467547
0.460057
0.453487
0.447747
0.442743
0.818061
0.802558
0.785004
0.76582
0.745372
0.724043
0.70221
0.680221
0.658387
0.636987
0.61626
0.596406
0.577585
0.559917
0.543485
0.528334
0.514479
0.501903
0.490574
0.48044
0.471435
0.463478
0.456485
0.450367
0.445044
0.356593
0.356472
0.35646
0.36303
0.362998
0.367231
0.36786
0.372914
0.380815
0.37746
0.38361
0.390577
0.391778
0.395213
0.39849
0.399803
0.401954
0.403801
0.403574
0.405245
0.406661
0.40504
0.406572
0.40785
0.405337
0.406828
0.408081
0.405347
0.406781
0.408014
0.405466
0.406826
0.408012
0.405783
0.40706
0.40818
0.406299
0.407485
0.408531
0.40702
0.408124
0.40908
0.40796
0.40896
0.40985
0.409337
0.410118
0.410832
0.411272
0.411757
0.412221
0.413848
0.413936
0.414056
0.416904
0.416512
0.416224
0.420855
0.41989
0.419089
0.425309
0.423745
0.422391
0.429488
0.427367
0.425515
0.433214
0.430608
0.428318
0.436508
0.433485
0.430816
0.438644
0.435307
0.432352
0.440619
0.436951
0.433773
0.432426
0.432381
0.432283
0.431943
0.431096
0.429745
0.428018
0.426039
0.423919
0.421743
0.419569
0.41744
0.415383
0.413414
0.411543
0.409776
0.408113
0.406554
0.405097
0.403739
0.402477
0.401308
0.400227
0.399231
0.398318
0.397485
0.396728
0.396048
0.395441
0.394907
0.394446
0.394058
0.393744
0.393504
0.393341
0.393257
0.393254
0.393341
0.39352
0.393793
0.394164
0.394639
0.395229
0.395943
0.396786
0.397766
0.398888
0.400161
0.401593
0.40319
0.404957
0.406896
0.409008
0.411289
0.413729
0.416312
0.419013
0.421794
0.424605
0.427378
0.430029
0.432438
0.434437
0.435862
0.436663
0.436954
0.436659
0.435725
0.434254
0.432229
0.42972
0.427111
0.424739
0.422808
0.421611
0.421413
0.422274
0.423803
0.425171
0.42581
0.432541
0.432422
0.432274
0.43174
0.430706
0.429279
0.427538
0.42559
0.423526
0.421416
0.419311
0.417248
0.41525
0.413333
0.411507
0.409776
0.408144
0.40661
0.405173
0.403831
0.402581
0.40142
0.400345
0.399353
0.39844
0.397605
0.396845
0.396158
0.395543
0.394999
0.394525
0.394122
0.39379
0.39353
0.393345
0.393236
0.393206
0.393255
0.39339
0.393616
0.393939
0.394364
0.394895
0.395536
0.396297
0.397184
0.398206
0.399368
0.400675
0.402133
0.403745
0.405513
0.407434
0.409506
0.411716
0.414051
0.416485
0.418986
0.421509
0.423995
0.426375
0.428556
0.430418
0.431846
0.43282
0.433381
0.433422
0.432771
0.431375
0.429375
0.426962
0.424479
0.42229
0.420582
0.419591
0.419508
0.420443
0.422209
0.424152
0.425347
0.432671
0.432252
0.431697
0.430808
0.429574
0.428076
0.426364
0.424509
0.422567
0.420589
0.418613
0.416667
0.414775
0.41295
0.411203
0.40954
0.407966
0.40648
0.405084
0.403776
0.402554
0.401416
0.40036
0.399382
0.39848
0.397653
0.396897
0.396212
0.395595
0.395047
0.394566
0.394153
0.393807
0.393531
0.393325
0.393192
0.393133
0.393153
0.393252
0.393438
0.393713
0.394084
0.394555
0.395131
0.395819
0.396624
0.397554
0.398612
0.399806
0.401137
0.40261
0.404224
0.405979
0.407868
0.409882
0.412007
0.414221
0.416495
0.418789
0.421055
0.423239
0.425278
0.427089
0.428542
0.429561
0.430144
0.430227
0.429709
0.428586
0.426948
0.424915
0.422763
0.420836
0.41937
0.418512
0.418344
0.418922
0.420181
0.421849
0.423302
0.43213
0.431417
0.43055
0.429454
0.428127
0.426616
0.424962
0.423207
0.421389
0.419541
0.417693
0.415869
0.414087
0.412362
0.410703
0.409119
0.407613
0.406187
0.404842
0.403579
0.402395
0.401289
0.400259
0.399303
0.398419
0.397604
0.396858
0.396178
0.395563
0.395012
0.394525
0.394102
0.393743
0.393449
0.393221
0.393061
0.392971
0.392954
0.393013
0.393152
0.393375
0.393686
0.394091
0.394593
0.395199
0.395915
0.396745
0.397696
0.398772
0.399976
0.401311
0.402778
0.404377
0.406103
0.407947
0.409899
0.41194
0.414046
0.416186
0.418319
0.420399
0.42238
0.424209
0.425784
0.426952
0.427628
0.427785
0.427387
0.426468
0.425133
0.423465
0.421609
0.419856
0.418483
0.417637
0.417387
0.41772
0.418538
0.41968
0.420932
0.430816
0.429938
0.428971
0.427829
0.426496
0.425017
0.42343
0.421766
0.420055
0.418322
0.41659
0.414879
0.413204
0.411579
0.410013
0.408512
0.407081
0.405722
0.404438
0.403226
0.402088
0.401022
0.400026
0.399098
0.398238
0.397442
0.396709
0.396039
0.395429
0.39488
0.39439
0.39396
0.393589
0.393279
0.393031
0.392846
0.392727
0.392675
0.392694
0.392787
0.392958
0.393211
0.393551
0.393982
0.394509
0.395138
0.395873
0.39672
0.397683
0.398766
0.399971
0.4013
0.402753
0.404326
0.406013
0.407805
0.409686
0.411638
0.413634
0.41564
0.417616
0.419514
0.421282
0.422844
0.424086
0.424918
0.425297
0.425198
0.424637
0.423676
0.422378
0.420837
0.419298
0.418028
0.417198
0.416874
0.417016
0.417533
0.418243
0.419188
0.429033
0.428045
0.427062
0.425938
0.424647
0.423232
0.421727
0.420161
0.418557
0.416936
0.415319
0.413721
0.412155
0.410633
0.409163
0.407751
0.406401
0.405116
0.403897
0.402744
0.401658
0.400637
0.39968
0.398786
0.397953
0.39718
0.396465
0.395807
0.395206
0.39466
0.39417
0.393734
0.393354
0.39303
0.392762
0.392553
0.392405
0.392319
0.392298
0.392345
0.392465
0.392661
0.392937
0.393297
0.393746
0.394289
0.394931
0.395676
0.396529
0.397494
0.398572
0.399766
0.401077
0.402501
0.404034
0.40567
0.407395
0.409194
0.411046
0.412923
0.414791
0.416609
0.418327
0.419881
0.421192
0.422199
0.42286
0.423138
0.423009
0.422483
0.421588
0.420403
0.419138
0.418033
0.417258
0.416883
0.41688
0.417159
0.417535
0.418114
0.426815
0.425818
0.424878
0.42381
0.422596
0.421273
0.41987
0.418414
0.416926
0.415424
0.413925
0.412443
0.410989
0.409573
0.408203
0.406883
0.405618
0.40441
0.40326
0.40217
0.401139
0.400167
0.399252
0.398394
0.397592
0.396844
0.396149
0.395506
0.394915
0.394375
0.393885
0.393445
0.393056
0.392719
0.392434
0.392202
0.392025
0.391906
0.391846
0.391849
0.391919
0.392059
0.392272
0.392564
0.392938
0.393399
0.393951
0.394599
0.395346
0.396197
0.397155
0.39822
0.399395
0.400677
0.402064
0.403549
0.405125
0.406777
0.408489
0.410239
0.411999
0.413738
0.415414
0.416979
0.418379
0.419563
0.420487
0.421109
0.421391
0.421317
0.420889
0.42016
0.419275
0.418429
0.417781
0.417391
0.417253
0.417302
0.417416
0.417693
0.424247
0.423314
0.422459
0.421484
0.420381
0.419177
0.417898
0.416569
0.415208
0.413833
0.412459
0.411097
0.409758
0.40845
0.407181
0.405955
0.404776
0.403647
0.402569
0.401542
0.400568
0.399646
0.398775
0.397954
0.397184
0.396462
0.395788
0.395161
0.39458
0.394046
0.393558
0.393115
0.392719
0.392369
0.392067
0.391813
0.39161
0.391458
0.391362
0.391323
0.391345
0.391431
0.391586
0.391813
0.392116
0.3925
0.392968
0.393525
0.394174
0.394921
0.395766
0.396714
0.397764
0.398916
0.400169
0.401518
0.402957
0.404475
0.406061
0.407696
0.409359
0.411025
0.412661
0.414233
0.415702
0.417031
0.41817
0.419086
0.419757
0.420142
0.420225
0.420016
0.419596
0.419091
0.418631
0.418244
0.41797
0.417834
0.417761
0.417797
0.421427
0.420581
0.419834
0.418988
0.418033
0.416979
0.41585
0.414668
0.413451
0.412214
0.410971
0.409734
0.408513
0.407315
0.406148
0.405015
0.403922
0.402871
0.401863
0.400899
0.399981
0.399108
0.39828
0.397496
0.396756
0.39606
0.395407
0.394796
0.394226
0.393698
0.393212
0.392767
0.392364
0.392002
0.391684
0.39141
0.391181
0.391
0.390869
0.39079
0.390767
0.390803
0.390903
0.39107
0.391309
0.391622
0.392014
0.392489
0.393051
0.393703
0.39445
0.395292
0.396232
0.397271
0.398408
0.399639
0.400961
0.402366
0.403845
0.405385
0.406968
0.408577
0.410186
0.41177
0.413305
0.414765
0.416072
0.417226
0.418239
0.419033
0.419592
0.419893
0.419965
0.419839
0.41958
0.419223
0.418852
0.41855
0.418318
0.418154
0.418339
0.417605
0.417004
0.416341
0.415581
0.414719
0.413773
0.412763
0.411707
0.41062
0.409516
0.408408
0.407305
0.406217
0.405149
0.404108
0.403098
0.402121
0.40118
0.400276
0.399411
0.398584
0.397797
0.397048
0.396337
0.395665
0.395031
0.394434
0.393875
0.393353
0.392868
0.392421
0.392011
0.391639
0.391306
0.391013
0.390761
0.390551
0.390387
0.390271
0.390207
0.390198
0.390248
0.390361
0.390541
0.390791
0.391116
0.391519
0.392005
0.392576
0.393237
0.393991
0.394838
0.395782
0.396822
0.397957
0.399184
0.400499
0.401895
0.403362
0.404889
0.40646
0.408057
0.409659
0.411243
0.412789
0.414292
0.415703
0.416965
0.418068
0.419025
0.419758
0.420245
0.420524
0.420505
0.420196
0.419743
0.41924
0.418806
0.418448
0.414824
0.414258
0.41391
0.413544
0.413061
0.412447
0.411723
0.410913
0.410036
0.409109
0.40815
0.407171
0.406185
0.405202
0.40423
0.403275
0.402341
0.401433
0.400554
0.399705
0.398887
0.398103
0.397351
0.396633
0.395948
0.395297
0.39468
0.394096
0.393545
0.393028
0.392544
0.392094
0.391678
0.391296
0.390949
0.390638
0.390364
0.390129
0.389934
0.389784
0.389682
0.389632
0.389637
0.389702
0.389831
0.390027
0.390294
0.390636
0.391057
0.391561
0.392151
0.392832
0.393605
0.394472
0.395436
0.396496
0.397652
0.3989
0.400238
0.401657
0.403151
0.404707
0.406312
0.407951
0.409604
0.411252
0.412877
0.41446
0.415991
0.417424
0.418703
0.419747
0.420589
0.421162
0.421375
0.42117
0.420602
0.419907
0.419095
0.418462
0.410527
0.410343
0.410467
0.410595
0.410524
0.410231
0.409772
0.409188
0.408504
0.407744
0.406928
0.406075
0.4052
0.404315
0.403429
0.402551
0.401686
0.400839
0.400013
0.399211
0.398435
0.397686
0.396965
0.396273
0.39561
0.394976
0.394372
0.393798
0.393254
0.39274
0.392256
0.391803
0.39138
0.390989
0.390629
0.390301
0.390007
0.389747
0.389524
0.389342
0.389205
0.389118
0.389085
0.389109
0.389193
0.389343
0.389562
0.389853
0.390222
0.390671
0.391205
0.391828
0.392543
0.393353
0.39426
0.395266
0.396372
0.397577
0.398879
0.400274
0.401758
0.403321
0.404955
0.406647
0.408382
0.410145
0.411916
0.413675
0.415399
0.417065
0.418675
0.420113
0.421327
0.422209
0.42266
0.422532
0.421745
0.420739
0.419467
0.41824
0.404364
0.405263
0.406503
0.407444
0.407994
0.408151
0.408006
0.407669
0.407184
0.406586
0.405906
0.405169
0.404392
0.403592
0.402781
0.401967
0.401159
0.400362
0.39958
0.398816
0.398073
0.397352
0.396655
0.395982
0.395335
0.394714
0.39412
0.393553
0.393012
0.3925
0.392015
0.391557
0.391128
0.390727
0.390356
0.390013
0.389701
0.389417
0.389165
0.388952
0.388784
0.388666
0.3886
0.388588
0.388637
0.388749
0.388928
0.389179
0.389505
0.389912
0.390403
0.390983
0.391656
0.392425
0.393293
0.394265
0.395341
0.396522
0.39781
0.399202
0.400695
0.402286
0.403968
0.40573
0.407564
0.409454
0.411385
0.413337
0.415287
0.417209
0.419073
0.420832
0.422479
0.423818
0.424673
0.424862
0.424283
0.42273
0.419974
0.417515
0.394996
0.399372
0.402292
0.40426
0.405566
0.406305
0.406549
0.406454
0.406152
0.4057
0.405136
0.404494
0.403796
0.403063
0.402309
0.401545
0.40078
0.40002
0.39927
0.398533
0.397813
0.397112
0.396431
0.395772
0.395135
0.394522
0.393933
0.393369
0.39283
0.392317
0.391829
0.391367
0.390931
0.390522
0.39014
0.389786
0.389457
0.389148
0.388865
0.388619
0.388422
0.388279
0.388186
0.388147
0.388166
0.388248
0.388396
0.388616
0.388911
0.389287
0.389747
0.390297
0.390941
0.391684
0.39253
0.393482
0.394545
0.395721
0.397011
0.398418
0.399939
0.401574
0.40332
0.405169
0.407115
0.409148
0.411254
0.413417
0.415618
0.41783
0.420025
0.422167
0.424225
0.426091
0.427589
0.428614
0.429636
0.428905
0.422999
0.415135
0.376203
0.39143
0.397725
0.401362
0.403516
0.404829
0.405495
0.405645
0.405484
0.405138
0.404658
0.404081
0.403436
0.402747
0.40203
0.401297
0.400558
0.399821
0.39909
0.398369
0.397663
0.396972
0.3963
0.395647
0.395015
0.394405
0.393817
0.393253
0.392713
0.392197
0.391705
0.391238
0.390795
0.390378
0.389987
0.389619
0.389268
0.388936
0.388632
0.388361
0.388134
0.387962
0.387848
0.387788
0.387785
0.387844
0.387969
0.388166
0.388439
0.388793
0.389233
0.389764
0.390392
0.391121
0.391957
0.392905
0.393968
0.395152
0.39646
0.397894
0.399457
0.401149
0.40297
0.404917
0.406988
0.409174
0.411469
0.413861
0.416335
0.418874
0.421455
0.424058
0.426663
0.429239
0.431756
0.434281
0.437025
0.439489
0.440161
0.444012
0.380205
0.390473
0.39628
0.400278
0.402658
0.404134
0.404991
0.405314
0.40524
0.404939
0.404494
0.403944
0.403321
0.402648
0.401945
0.401224
0.400495
0.399766
0.399041
0.398326
0.397623
0.396934
0.396263
0.39561
0.394977
0.394365
0.393775
0.393208
0.392665
0.392145
0.391648
0.391174
0.390725
0.3903
0.389894
0.389502
0.389128
0.388782
0.38847
0.388189
0.38794
0.387735
0.387592
0.387513
0.387494
0.387537
0.387646
0.387828
0.388086
0.388427
0.388856
0.389378
0.389999
0.390726
0.391563
0.392516
0.393591
0.394794
0.396129
0.397601
0.399214
0.400971
0.402874
0.404924
0.407121
0.409464
0.41195
0.414573
0.417328
0.420203
0.42319
0.426277
0.429459
0.432735
0.436137
0.439777
0.443777
0.448115
0.453606
0.462972
0.388973
0.394917
0.398812
0.401621
0.403393
0.404525
0.405213
0.405504
0.405434
0.405114
0.404646
0.404078
0.40344
0.402757
0.402045
0.401317
0.400581
0.399847
0.399117
0.398397
0.397688
0.396995
0.396318
0.39566
0.395021
0.394404
0.393809
0.393237
0.392689
0.392164
0.391662
0.391183
0.390726
0.390285
0.389853
0.389438
0.389051
0.388699
0.388379
0.388091
0.387835
0.387613
0.387437
0.387328
0.387291
0.387325
0.387426
0.387599
0.38785
0.388185
0.388611
0.389132
0.389755
0.390487
0.391334
0.392301
0.393396
0.394625
0.395995
0.39751
0.399177
0.401001
0.402986
0.405137
0.407456
0.409948
0.412612
0.415452
0.418468
0.421659
0.425027
0.428574
0.432306
0.436225
0.44037
0.444791
0.449465
0.454368
0.45986
0.466571
0.396065
0.399734
0.402271
0.403986
0.405074
0.405739
0.40609
0.40618
0.406018
0.405633
0.405091
0.404458
0.403771
0.403051
0.40231
0.401559
0.400804
0.400053
0.399309
0.398576
0.397856
0.397151
0.396464
0.395796
0.395148
0.394523
0.393921
0.393343
0.392791
0.392263
0.391758
0.391269
0.390788
0.390317
0.389864
0.38944
0.38905
0.388693
0.388367
0.388074
0.387814
0.387589
0.387402
0.387265
0.387195
0.387207
0.387301
0.387474
0.387727
0.388064
0.388492
0.389019
0.389651
0.390395
0.391257
0.392245
0.393366
0.394626
0.396034
0.397595
0.399317
0.401206
0.403268
0.405511
0.407939
0.41056
0.41338
0.416406
0.419645
0.423107
0.426799
0.430721
0.434867
0.439189
0.443673
0.448358
0.453216
0.458261
0.46382
0.469972
0.401416
0.403682
0.405293
0.406331
0.40695
0.407258
0.407323
0.407194
0.40689
0.406413
0.405778
0.405045
0.404279
0.403502
0.402719
0.401934
0.401152
0.400377
0.399612
0.398861
0.398125
0.397406
0.396706
0.396025
0.395366
0.394731
0.39412
0.393537
0.392983
0.392451
0.391927
0.391408
0.390897
0.390408
0.389951
0.389526
0.389133
0.388772
0.388444
0.388149
0.387888
0.387665
0.38748
0.38734
0.38725
0.387229
0.387293
0.387453
0.387709
0.388055
0.388495
0.389035
0.389681
0.390442
0.391325
0.392338
0.393487
0.394782
0.396228
0.397834
0.399608
0.401556
0.403687
0.406008
0.408528
0.411254
0.414196
0.417367
0.420781
0.42445
0.42835
0.432438
0.436703
0.44114
0.445707
0.450406
0.455296
0.460415
0.465802
0.471357
0.405453
0.406805
0.407752
0.408341
0.40864
0.408704
0.408576
0.408296
0.407885
0.407323
0.406595
0.405762
0.404912
0.404075
0.403246
0.402423
0.40161
0.400808
0.400021
0.39925
0.398496
0.397761
0.397047
0.396355
0.395685
0.395041
0.394422
0.393832
0.393265
0.392704
0.392144
0.391597
0.391078
0.390589
0.39013
0.389702
0.389307
0.388945
0.388617
0.388323
0.388065
0.387845
0.387667
0.387535
0.387454
0.387427
0.387468
0.387596
0.387823
0.388159
0.388611
0.389171
0.389838
0.390623
0.391531
0.392571
0.393752
0.395081
0.396566
0.398214
0.400033
0.402033
0.404221
0.406605
0.409194
0.411998
0.415029
0.4183
0.421812
0.425539
0.429461
0.433559
0.437821
0.44227
0.446909
0.451713
0.456671
0.461764
0.466949
0.472116