/*--------------------------------*- C++ -*----------------------------------*\
| =========                 |                                                 |
| \\      /  F ield         | OpenFOAM: The Open Source CFD Toolbox           |
|  \\    /   O peration     | Version:  v2012                                 |
|   \\  /    A nd           | Website:  www.openfoam.com                      |
|    \\/     M anipulation  |                                                 |
\*---------------------------------------------------------------------------*/
FoamFile
{
    version     2.0;
    format      ascii;
    class       surfaceScalarField;
    location    "503";
    object      phi;
}
// * * * * * * * * * * * * * * * * * * * * * * * * * * * * * * * * * * * * * //

dimensions      [0 3 -1 0 0 0 0];
oriented        oriented;


internalField   nonuniform List<scalar> 
12848
(
5.05513e-08
0.000199949
3.44593e-08
0.000200016
2.08913e-08
0.000200014
9.87928e-09
0.000200011
1.72042e-11
0.00020001
-9.8478e-09
0.00020001
-2.08681e-08
0.000200011
-3.44487e-08
0.000200014
-5.05489e-08
0.000200016
0.000199949
8.15771e-08
0.000199868
7.21223e-08
0.000200026
4.89746e-08
0.000200037
2.43371e-08
0.000200036
5.20912e-11
0.000200034
-2.42409e-08
0.000200034
-4.89017e-08
0.000200036
-7.20848e-08
0.000200037
-8.15692e-08
0.000200026
0.000199868
8.4333e-08
0.000199784
8.48886e-08
0.000200025
6.17441e-08
0.00020006
3.18236e-08
0.000200066
1.00123e-10
0.000200066
-3.16341e-08
0.000200066
-6.15829e-08
0.000200066
-8.47613e-08
0.00020006
-8.42592e-08
0.000200025
0.000199784
8.15185e-08
0.000199702
8.53916e-08
0.000200021
6.46734e-08
0.000200081
3.42389e-08
0.000200096
1.68381e-10
0.0002001
-3.39183e-08
0.0002001
-6.43985e-08
0.000200096
-8.51906e-08
0.000200081
-8.14084e-08
0.000200021
0.000199702
7.79191e-08
0.000199624
8.28663e-08
0.000200016
6.3852e-08
0.0002001
3.42181e-08
0.000200126
2.66872e-10
0.000200134
-3.37092e-08
0.000200134
-6.34156e-08
0.000200126
-8.25465e-08
0.0002001
-7.77467e-08
0.000200017
0.000199624
7.35774e-08
0.000199551
7.89027e-08
0.000200011
6.15107e-08
0.000200117
3.32159e-08
0.000200154
4.10684e-10
0.000200167
-3.24347e-08
0.000200167
-6.08454e-08
0.000200154
-7.84121e-08
0.000200117
-7.33101e-08
0.000200011
0.000199551
6.93292e-08
0.000199481
7.44146e-08
0.000200006
5.81428e-08
0.000200133
3.16291e-08
0.00020018
6.29044e-10
0.000200198
-3.04324e-08
0.000200198
-5.71228e-08
0.000200181
-7.36642e-08
0.000200134
-6.89195e-08
0.000200007
0.000199482
6.56132e-08
0.000199416
7.02953e-08
0.000200001
5.50004e-08
0.000200149
3.01072e-08
0.000200205
9.6405e-10
0.000200227
-2.82714e-08
0.000200227
-5.3431e-08
0.000200206
-6.91393e-08
0.00020015
-6.49801e-08
0.000200002
0.000199417
6.25523e-08
0.000199353
6.68631e-08
0.000199997
5.24098e-08
0.000200163
2.89452e-08
0.000200229
1.47408e-09
0.000200254
-2.61371e-08
0.000200255
-5.00072e-08
0.00020023
-6.50911e-08
0.000200165
-6.15791e-08
0.000199999
0.000199356
6.01445e-08
0.000199293
6.42076e-08
0.000199993
5.04992e-08
0.000200177
2.82785e-08
0.000200251
2.24786e-09
0.00020028
-2.39961e-08
0.000200281
-4.68349e-08
0.000200253
-6.151e-08
0.000200179
-5.86633e-08
0.000199996
0.000199297
5.83569e-08
0.000199235
6.23548e-08
0.000199989
4.93644e-08
0.00020019
2.8237e-08
0.000200272
3.41922e-09
0.000200305
-2.1724e-08
0.000200306
-4.37959e-08
0.000200275
-5.82679e-08
0.000200194
-5.61168e-08
0.000199994
0.000199241
5.71968e-08
0.000199177
6.13766e-08
0.000199985
4.91254e-08
0.000200202
2.89919e-08
0.000200292
5.18677e-09
0.000200329
-1.91202e-08
0.00020033
-4.07007e-08
0.000200296
-5.51912e-08
0.000200208
-5.38116e-08
0.000199993
0.000199187
5.67416e-08
0.000199121
6.1453e-08
0.00019998
5.00262e-08
0.000200213
3.08344e-08
0.000200311
7.8621e-09
0.000200352
-1.58895e-08
0.000200354
-3.73001e-08
0.000200318
-5.20901e-08
0.000200223
-5.16297e-08
0.000199992
0.000199135
5.71262e-08
0.000199063
6.28375e-08
0.000199974
5.24879e-08
0.000200224
3.42599e-08
0.00020033
1.19411e-08
0.000200374
-1.1603e-08
0.000200378
-3.32878e-08
0.00020034
-4.87954e-08
0.000200239
-4.9493e-08
0.000199993
0.000199086
5.85181e-08
0.000199005
6.58515e-08
0.000199967
5.70887e-08
0.000200232
4.00294e-08
0.000200347
1.81944e-08
0.000200396
-5.62854e-09
0.000200402
-2.82855e-08
0.000200362
-4.52048e-08
0.000200256
-4.74797e-08
0.000199995
0.000199038
6.14349e-08
0.000198944
7.15072e-08
0.000199957
6.5048e-08
0.000200239
4.943e-08
0.000200362
2.78779e-08
0.000200418
3.02673e-09
0.000200426
-2.17997e-08
0.000200387
-4.14035e-08
0.000200275
-4.59583e-08
0.0002
0.000198993
6.65627e-08
0.000198877
8.10184e-08
0.000199942
7.80203e-08
0.000200242
6.44266e-08
0.000200376
4.29683e-08
0.000200439
1.60058e-08
0.000200453
-1.32271e-08
0.000200416
-3.83478e-08
0.0002003
-4.66363e-08
0.000200008
0.000198946
7.48995e-08
0.000198802
9.62863e-08
0.000199921
9.88013e-08
0.000200239
8.85279e-08
0.000200386
6.73059e-08
0.00020046
3.63069e-08
0.000200484
-1.93822e-09
0.000200454
-3.98536e-08
0.000200338
-5.60422e-08
0.000200024
0.00019889
8.78391e-08
0.000198714
1.20067e-07
0.000199889
1.31566e-07
0.000200228
1.27465e-07
0.00020039
1.08054e-07
0.00020048
7.23452e-08
0.00020052
2.08322e-08
0.000200506
-3.59786e-08
0.000200395
-7.10293e-08
0.000200059
0.000198819
1.0699e-07
0.000198607
1.55827e-07
0.00019984
1.81794e-07
0.000200202
1.88793e-07
0.000200383
1.74539e-07
0.000200494
1.33331e-07
0.000200561
5.14453e-08
0.000200588
-8.02955e-08
0.000200527
-2.61704e-07
0.000200241
0.000198557
1.34513e-07
0.000198473
2.08118e-07
0.000199766
2.57598e-07
0.000200152
2.86946e-07
0.000200354
2.94607e-07
0.000200486
2.7779e-07
0.000200578
2.3642e-07
0.000200629
1.72152e-07
0.000200591
4.21619e-07
0.000199991
0.000193855
5.12332e-06
1.71903e-07
0.000198301
2.80058e-07
0.000199658
3.63668e-07
0.000200069
4.27563e-07
0.00020029
4.71602e-07
0.000200442
4.9953e-07
0.00020055
5.35676e-07
0.000200593
6.46264e-07
0.00020048
9.70575e-07
0.000199667
0.000191617
3.20885e-06
2.19567e-07
0.000198081
3.72483e-07
0.000199505
5.00505e-07
0.000199941
6.09635e-07
0.000200181
7.01403e-07
0.000200351
7.81012e-07
0.000200471
8.70429e-07
0.000200504
1.07847e-06
0.000200272
1.76958e-06
0.000198976
0.000188334
5.0526e-06
2.7783e-07
0.000197803
4.85926e-07
0.000199297
6.6858e-07
0.000199758
8.33068e-07
0.000200016
9.83262e-07
0.0002002
1.12971e-06
0.000200324
1.31017e-06
0.000200323
1.66613e-06
0.000199916
2.68927e-06
0.000197953
0.000184711
6.31214e-06
3.47384e-07
0.000197456
6.21595e-07
0.000199023
8.69558e-07
0.00019951
1.09988e-06
0.000199786
1.31895e-06
0.000199981
1.54345e-06
0.0002001
1.82329e-06
0.000200043
2.31581e-06
0.000199424
3.55044e-06
0.000196718
0.000181113
7.14847e-06
4.29268e-07
0.000197027
7.81254e-07
0.000198671
1.10574e-06
0.000199186
1.41246e-06
0.000199479
1.70968e-06
0.000199684
2.01862e-06
0.000199791
2.3988e-06
0.000199663
3.02843e-06
0.000198794
4.48989e-06
0.000195256
0.00017768
7.9235e-06
5.2488e-07
0.000196502
9.67534e-07
0.000198228
1.38113e-06
0.000198772
1.77621e-06
0.000199084
2.16276e-06
0.000199297
2.56602e-06
0.000199387
3.05335e-06
0.000199176
3.81099e-06
0.000198037
5.41694e-06
0.000193651
0.000174545
8.55197e-06
6.36972e-07
0.000195865
1.18439e-06
0.000197681
1.70187e-06
0.000198255
2.20003e-06
0.000198586
2.69081e-06
0.000198807
3.20363e-06
0.000198875
3.8138e-06
0.000198566
4.71132e-06
0.000197139
6.4302e-06
0.000191932
0.000171682
9.29292e-06
7.67507e-07
0.000195097
1.43694e-06
0.000197011
2.07517e-06
0.000197616
2.69403e-06
0.000197967
3.30767e-06
0.000198193
3.95028e-06
0.000198232
4.70731e-06
0.000197809
5.78155e-06
0.000196065
7.64157e-06
0.000190072
0.000169097
1.02259e-05
9.17165e-07
0.00019418
1.73021e-06
0.000196198
2.50809e-06
0.000196839
3.2667e-06
0.000197209
4.02237e-06
0.000197437
4.81307e-06
0.000197441
5.72932e-06
0.000196892
6.97376e-06
0.00019482
8.94992e-06
0.000188095
0.000166808
1.12394e-05
1.0894e-06
0.000193091
2.06827e-06
0.000195219
3.0071e-06
0.0001959
3.92559e-06
0.00019629
4.84195e-06
0.000196521
5.79633e-06
0.000196487
6.87964e-06
0.000195809
8.2837e-06
0.000193416
1.03328e-05
0.000186046
0.000164849
1.22917e-05
1.28823e-06
0.000191803
2.45603e-06
0.000194052
3.57956e-06
0.000194776
4.68029e-06
0.00019519
5.77774e-06
0.000195424
6.91286e-06
0.000195352
8.17403e-06
0.000194548
9.73976e-06
0.000191851
1.18204e-05
0.000183966
0.000163204
1.34657e-05
1.51649e-06
0.000190286
2.90039e-06
0.000192668
4.23513e-06
0.000193441
5.54355e-06
0.000193881
6.84547e-06
0.000194122
8.18081e-06
0.000194016
9.63207e-06
0.000193097
1.13502e-05
0.000190133
1.34096e-05
0.000181906
0.00016184
1.4773e-05
1.77792e-06
0.000188508
3.40925e-06
0.000191036
4.98536e-06
0.000191865
6.53066e-06
0.000192336
8.06434e-06
0.000192588
9.62296e-06
0.000192458
1.12778e-05
0.000191442
1.31364e-05
0.000188274
1.5153e-05
0.00017989
0.000160721
1.62722e-05
2.07679e-06
0.000186431
3.99104e-06
0.000189122
5.8429e-06
0.000190013
7.65869e-06
0.00019052
9.45621e-06
0.00019079
1.12665e-05
0.000190648
1.31441e-05
0.000189564
1.51467e-05
0.000186271
1.71264e-05
0.00017791
0.000159799
1.80481e-05
2.41734e-06
0.000184014
4.65428e-06
0.000186885
6.82068e-06
0.000187847
8.94536e-06
0.000188395
1.10443e-05
0.000188692
1.31411e-05
0.000188551
1.52702e-05
0.000187435
1.74377e-05
0.000184104
1.94093e-05
0.000175938
0.000159019
2.01902e-05
2.80344e-06
0.000181211
5.40689e-06
0.000184282
7.93076e-06
0.000185323
1.04073e-05
0.000185919
1.28506e-05
0.000186248
1.52759e-05
0.000186125
1.76953e-05
0.000185016
2.0065e-05
0.000181734
2.20797e-05
0.000173924
0.000158305
2.27933e-05
3.23828e-06
0.000177972
6.25524e-06
0.000181265
9.18285e-06
0.000182396
1.20578e-05
0.000183044
1.4893e-05
0.000183413
1.76948e-05
0.000183324
2.04532e-05
0.000182257
2.30786e-05
0.000179109
2.52111e-05
0.000171791
0.00015756
2.59561e-05
3.72545e-06
0.000174247
7.20343e-06
0.000177787
1.05829e-05
0.000179016
1.3905e-05
0.000179722
1.71821e-05
0.000180136
2.04129e-05
0.000180093
2.35665e-05
0.000179104
2.65147e-05
0.000176161
2.88588e-05
0.000169447
0.000156665
2.9754e-05
4.26674e-06
0.00016998
8.25285e-06
0.000173801
1.21319e-05
0.000175137
1.59497e-05
0.000175904
1.97189e-05
0.000176367
2.34321e-05
0.00017638
2.70413e-05
0.000175494
3.03878e-05
0.000172814
3.30509e-05
0.000166784
0.000155483
3.42328e-05
4.86074e-06
0.000165119
9.40168e-06
0.00016926
1.38257e-05
0.000170713
1.81846e-05
0.000171545
2.24931e-05
0.000172058
2.67396e-05
0.000172133
3.08637e-05
0.00017137
3.46872e-05
0.000168991
3.7783e-05
0.000163688
0.000153866
3.94002e-05
5.50504e-06
0.000159614
1.06447e-05
0.00016412
1.56546e-05
0.000165703
2.05946e-05
0.000166605
2.54828e-05
0.00016717
3.03067e-05
0.000167309
3.49992e-05
0.000166678
3.93739e-05
0.000164616
4.3013e-05
0.000160049
0.000151662
4.52161e-05
6.19655e-06
0.000153418
1.19741e-05
0.000158342
1.76042e-05
0.000160073
2.31567e-05
0.000161052
2.86554e-05
0.000161672
3.40898e-05
0.000161875
3.93925e-05
0.000161375
4.43801e-05
0.000159628
4.86592e-05
0.00015577
0.000148735
5.15864e-05
6.93197e-06
0.000146486
1.33808e-05
0.000151894
1.9657e-05
0.000153797
2.58431e-05
0.000154866
3.19701e-05
0.000155545
3.80334e-05
0.000155811
4.39709e-05
0.000155438
4.96127e-05
0.000153987
5.46031e-05
0.00015078
0.000144974
5.83646e-05
7.7086e-06
0.000138777
1.48558e-05
0.000144746
2.17946e-05
0.000146858
2.86229e-05
0.000148038
3.53813e-05
0.000148786
4.20738e-05
0.000149119
4.86497e-05
0.000148862
5.49607e-05
0.000147676
6.06985e-05
0.000145042
0.000140311
6.53613e-05
8.52539e-06
0.000130252
1.63923e-05
0.00013688
2.40001e-05
0.00013925
3.14659e-05
0.000140572
3.88425e-05
0.00014141
4.61456e-05
0.000141816
5.33399e-05
0.000141667
6.03048e-05
0.000140711
6.67858e-05
0.000138561
0.000134734
7.23629e-05
9.38406e-06
0.000120868
1.79876e-05
0.000128276
2.62603e-05
0.000130978
3.43451e-05
0.000132487
4.231e-05
0.000133445
5.01857e-05
0.00013394
5.79554e-05
0.000133898
6.55295e-05
0.000133137
7.27085e-05
0.000131382
0.000128286
7.91564e-05
1.02903e-05
0.000110578
1.96446e-05
0.000118922
2.85674e-05
0.000122055
3.7238e-05
0.000123817
4.57453e-05
0.000124937
5.41377e-05
0.000125548
6.24194e-05
0.000125616
7.05321e-05
0.000125024
7.83294e-05
0.000123585
0.00012106
8.5555e-05
1.12545e-05
9.9323e-05
2.13719e-05
0.000108804
3.09185e-05
0.000112508
4.01258e-05
0.000114609
4.91133e-05
0.00011595
5.79511e-05
0.00011671
6.66654e-05
0.000116902
7.52284e-05
0.000116461
8.35405e-05
0.000115272
0.000113185
9.14161e-05
1.22927e-05
8.70303e-05
2.31822e-05
9.79149e-05
3.33103e-05
0.00010238
4.29873e-05
0.000104932
5.23767e-05
0.000106561
6.15757e-05
0.000107511
7.06336e-05
0.000107844
7.95494e-05
0.000107545
8.82633e-05
0.000106559
0.000104801
9.66472e-05
1.3426e-05
7.36043e-05
2.50832e-05
8.62577e-05
3.57274e-05
9.17359e-05
4.57858e-05
9.48742e-05
5.54831e-05
9.68632e-05
6.49499e-05
9.80439e-05
7.42588e-05
9.85349e-05
8.34316e-05
9.83724e-05
9.24386e-05
9.75515e-05
9.6044e-05
0.000101196
1.46834e-05
5.89209e-05
2.70413e-05
7.38998e-05
3.81129e-05
8.06643e-05
4.84476e-05
8.45395e-05
5.83456e-05
8.69652e-05
6.79819e-05
8.84076e-05
7.74529e-05
8.90638e-05
8.67978e-05
8.90275e-05
9.6007e-05
8.83422e-05
8.70256e-05
0.000105025
1.60794e-05
4.28415e-05
2.89466e-05
6.10325e-05
4.03034e-05
6.93075e-05
5.07974e-05
7.40454e-05
6.07951e-05
7.69675e-05
7.05153e-05
7.86874e-05
8.00772e-05
7.95019e-05
8.95319e-05
7.95729e-05
9.88807e-05
7.89934e-05
7.78212e-05
0.000108085
1.67256e-05
2.6116e-05
3.04667e-05
4.72914e-05
4.20697e-05
5.77045e-05
5.25845e-05
6.35307e-05
6.25707e-05
6.69813e-05
7.23027e-05
6.89554e-05
8.19108e-05
6.98938e-05
9.14466e-05
7.00371e-05
0.000100912
6.95276e-05
6.8458e-05
0.000110276
1.48889e-05
1.12271e-05
2.99327e-05
3.22476e-05
4.23685e-05
4.52687e-05
5.3165e-05
5.27341e-05
6.32065e-05
5.69399e-05
7.29565e-05
5.92054e-05
8.26162e-05
6.02341e-05
9.22523e-05
6.0401e-05
0.000101864
5.99161e-05
5.8909e-05
0.000111413
1.04671e-05
7.60006e-07
2.54893e-05
1.72254e-05
3.91269e-05
3.16311e-05
5.09348e-05
4.09263e-05
6.15885e-05
4.62862e-05
7.16917e-05
4.91021e-05
8.16031e-05
5.03226e-05
9.14779e-05
5.05263e-05
0.000101347
5.00474e-05
4.90786e-05
0.000111177
6.20661e-06
-5.4466e-06
1.80608e-05
5.37123e-06
3.1376e-05
1.83158e-05
4.41085e-05
2.81938e-05
5.59119e-05
3.44828e-05
6.70045e-05
3.80096e-05
7.77019e-05
3.96252e-05
8.82152e-05
4.00129e-05
9.86365e-05
3.96261e-05
3.87382e-05
0.000108977
2.98072e-06
-8.42732e-06
9.86154e-06
-1.5096e-06
2.03144e-05
7.86292e-06
3.23277e-05
1.61805e-05
4.4731e-05
2.20795e-05
5.70194e-05
2.57212e-05
6.90444e-05
2.76002e-05
8.07851e-05
2.82723e-05
9.22886e-05
2.81226e-05
2.74301e-05
0.000103597
-1.46758e-06
-6.95974e-06
8.69031e-07
-3.84621e-06
7.32878e-06
1.40318e-06
1.69308e-05
6.57847e-06
2.86014e-05
1.04089e-05
4.14708e-05
1.28518e-05
5.48039e-05
1.42671e-05
6.8051e-05
1.50252e-05
8.10878e-05
1.50859e-05
1.46298e-05
9.38881e-05
-6.95974e-06
-1.08059e-05
-9.40277e-06
-2.82431e-06
7.58459e-06
2.04364e-05
3.47035e-05
4.97286e-05
6.48145e-05
7.94444e-05
-2.87742e-05
3.38976e-05
-2.8124e-05
-6.50237e-07
-2.48297e-05
-3.29426e-06
-2.06183e-05
-4.21142e-06
-1.56532e-05
-4.96518e-06
-1.02302e-05
-5.4229e-06
-4.63475e-06
-5.5955e-06
8.82834e-07
-5.51757e-06
6.22244e-06
-5.33961e-06
1.13774e-05
-5.15493e-06
1.62166e-05
-4.83925e-06
2.05305e-05
-4.31386e-06
2.41012e-05
-3.57074e-06
2.68412e-05
-2.74002e-06
2.87062e-05
-1.86499e-06
2.97011e-05
-9.9488e-07
2.97667e-05
-6.56217e-08
2.88278e-05
9.38878e-07
2.68137e-05
2.01416e-06
2.3663e-05
3.15061e-06
1.93512e-05
4.31187e-06
1.39844e-05
5.36671e-06
8.10469e-06
5.87975e-06
2.89869e-06
5.20603e-06
2.89869e-06
-1.42228e-05
5.13292e-05
-2.00544e-05
5.18132e-06
-1.99322e-05
-3.41646e-06
-1.78387e-05
-6.30495e-06
-1.46584e-05
-8.14548e-06
-1.06972e-05
-9.38405e-06
-6.18853e-06
-1.01042e-05
-1.35937e-06
-1.03467e-05
3.45019e-06
-1.01492e-05
7.95089e-06
-9.65563e-06
1.20187e-05
-8.90704e-06
1.55699e-05
-7.86507e-06
1.85498e-05
-6.55066e-06
2.08932e-05
-5.08346e-06
2.25746e-05
-3.54635e-06
2.35613e-05
-1.98156e-06
2.38802e-05
-3.8457e-07
2.35541e-05
1.26501e-06
2.2572e-05
2.99627e-06
2.08924e-05
4.8302e-06
1.84498e-05
6.75445e-06
1.51543e-05
8.66217e-06
1.08531e-05
1.01809e-05
5.63397e-06
1.04252e-05
8.53267e-06
-8.52393e-06
6.49058e-05
-1.55566e-05
1.2214e-05
-1.72935e-05
-1.67959e-06
-1.6509e-05
-7.08948e-06
-1.43139e-05
-1.03406e-05
-1.11875e-05
-1.25105e-05
-7.45739e-06
-1.38343e-05
-3.37424e-06
-1.44299e-05
8.71874e-07
-1.43953e-05
4.97629e-06
-1.376e-05
8.65576e-06
-1.25865e-05
1.17998e-05
-1.10091e-05
1.43959e-05
-9.14671e-06
1.64203e-05
-7.10795e-06
1.78565e-05
-4.9825e-06
1.87012e-05
-2.82629e-06
1.89743e-05
-6.57676e-07
1.87044e-05
1.53491e-06
1.79196e-05
3.78108e-06
1.66375e-05
6.11236e-06
1.48515e-05
8.54036e-06
1.25047e-05
1.1009e-05
9.42693e-06
1.32587e-05
5.3433e-06
1.45088e-05
1.3876e-05
-5.99237e-06
7.72103e-05
-1.40458e-05
2.02674e-05
-1.68171e-05
1.09169e-06
-1.67454e-05
-7.16111e-06
-1.50679e-05
-1.20181e-05
-1.2397e-05
-1.51813e-05
-9.09921e-06
-1.7132e-05
-5.44694e-06
-1.80822e-05
-1.6572e-06
-1.8185e-05
2.03784e-06
-1.74551e-05
5.40845e-06
-1.59571e-05
8.30388e-06
-1.39046e-05
1.0674e-05
-1.15168e-05
1.24943e-05
-8.92821e-06
1.37623e-05
-6.25052e-06
1.44987e-05
-3.56275e-06
1.47385e-05
-8.97461e-07
1.45215e-05
1.75195e-06
1.38843e-05
4.41822e-06
1.28561e-05
7.14059e-06
1.14522e-05
9.94424e-06
9.65747e-06
1.28038e-05
7.379e-06
1.55372e-05
4.34495e-06
1.75429e-05
1.82209e-05
-3.23362e-06
8.75924e-05
-1.26838e-05
2.97176e-05
-1.66969e-05
5.1048e-06
-1.74025e-05
-6.45548e-06
-1.62385e-05
-1.31822e-05
-1.39722e-05
-1.74476e-05
-1.10263e-05
-2.00779e-05
-7.71216e-06
-2.13963e-05
-4.30109e-06
-2.15961e-05
-9.8291e-07
-2.07733e-05
2.10522e-06
-1.90453e-05
4.82029e-06
-1.66196e-05
7.04469e-06
-1.37412e-05
8.7306e-06
-1.06141e-05
9.8905e-06
-7.41042e-06
1.05695e-05
-4.24174e-06
1.08225e-05
-1.15043e-06
1.06994e-05
1.87497e-06
1.02405e-05
4.87711e-06
9.47522e-06
7.9059e-06
8.42156e-06
1.09979e-05
7.07844e-06
1.41469e-05
5.39112e-06
1.72245e-05
3.11922e-06
1.98148e-05
2.13401e-05
-3.71757e-07
9.58876e-05
-1.02467e-05
3.95925e-05
-1.56272e-05
1.04853e-05
-1.74261e-05
-4.6566e-06
-1.70503e-05
-1.3558e-05
-1.53844e-05
-1.91135e-05
-1.29452e-05
-2.25171e-05
-1.00682e-05
-2.42733e-05
-7.01537e-06
-2.46489e-05
-3.98095e-06
-2.38077e-05
-1.12117e-06
-2.1905e-05
1.41312e-06
-1.91539e-05
3.49379e-06
-1.58219e-05
5.06691e-06
-1.21872e-05
6.15158e-06
-8.49509e-06
6.81006e-06
-4.90022e-06
7.11341e-06
-1.45378e-06
7.11969e-06
1.86868e-06
6.86941e-06
5.12739e-06
6.38836e-06
8.38695e-06
5.69094e-06
1.16953e-05
4.77785e-06
1.506e-05
3.61453e-06
1.83878e-05
2.04393e-06
2.13854e-05
2.33841e-05
2.12001e-06
0.00010232
-7.04014e-06
4.87527e-05
-1.33294e-05
1.67745e-05
-1.63275e-05
-1.65849e-06
-1.70319e-05
-1.28536e-05
-1.62437e-05
-1.99017e-05
-1.45195e-05
-2.42413e-05
-1.22305e-05
-2.65622e-05
-9.63617e-06
-2.72433e-05
-6.93705e-06
-2.65068e-05
-4.31886e-06
-2.45232e-05
-1.95965e-06
-2.15131e-05
7.32926e-10
-1.77823e-05
1.49459e-06
-1.36811e-05
2.54019e-06
-9.54068e-06
3.21318e-06
-5.57322e-06
3.59906e-06
-1.83966e-06
3.76206e-06
1.70568e-06
3.74161e-06
5.14783e-06
3.5597e-06
8.56887e-06
3.22794e-06
1.20271e-05
2.74846e-06
1.55394e-05
2.10106e-06
1.90352e-05
1.19586e-06
2.22906e-05
2.45799e-05
4.29678e-06
0.000107316
-3.835e-06
5.68844e-05
-1.0438e-05
2.33776e-05
-1.44396e-05
2.34311e-06
-1.62464e-05
-1.10468e-05
-1.64803e-05
-1.96678e-05
-1.56405e-05
-2.50811e-05
-1.40866e-05
-2.81162e-05
-1.20924e-05
-2.92374e-05
-9.83339e-06
-2.87658e-05
-7.50139e-06
-2.68552e-05
-5.30888e-06
-2.37056e-05
-3.43052e-06
-1.96607e-05
-1.96684e-06
-1.51448e-05
-9.15223e-07
-1.05923e-05
-1.93651e-07
-6.29479e-06
2.98464e-07
-2.33178e-06
6.33951e-07
1.37019e-06
8.52492e-07
4.92929e-06
9.73245e-07
8.44811e-06
1.00581e-06
1.19945e-05
9.52891e-07
1.55924e-05
7.99399e-07
1.91887e-05
4.8927e-07
2.26007e-05
2.50692e-05
6.25075e-06
0.000111291
-9.34191e-07
6.40694e-05
-7.50707e-06
2.99504e-05
-1.21906e-05
7.0266e-06
-1.49653e-05
-8.27202e-06
-1.62155e-05
-1.84177e-05
-1.63391e-05
-2.49575e-05
-1.5638e-05
-2.88172e-05
-1.43884e-05
-3.04871e-05
-1.26925e-05
-3.04617e-05
-1.07062e-05
-2.88415e-05
-8.67504e-06
-2.57368e-05
-6.82194e-06
-2.15138e-05
-5.31357e-06
-1.66531e-05
-4.19235e-06
-1.17135e-05
-3.3833e-06
-7.10385e-06
-2.7676e-06
-2.94748e-06
-2.25557e-06
8.58151e-07
-1.8017e-06
4.47542e-06
-1.38709e-06
8.0335e-06
-1.00404e-06
1.16114e-05
-6.5171e-07
1.524e-05
-3.46831e-07
1.88838e-05
-1.32731e-07
2.23866e-05
2.49365e-05
8.04713e-06
0.000114483
1.69293e-06
7.04236e-05
-4.7141e-06
3.63575e-05
-9.85043e-06
1.21629e-05
-1.34491e-05
-4.67338e-06
-1.56738e-05
-1.61929e-05
-1.6799e-05
-2.38324e-05
-1.70484e-05
-2.85677e-05
-1.65901e-05
-3.09454e-05
-1.5571e-05
-3.14808e-05
-1.4014e-05
-3.03985e-05
-1.21611e-05
-2.75898e-05
-1.02733e-05
-2.34016e-05
-8.61037e-06
-1.8316e-05
-7.315e-06
-1.30089e-05
-6.35678e-06
-8.06207e-06
-5.59514e-06
-3.70913e-06
-4.90613e-06
1.6914e-07
-4.22711e-06
3.79641e-06
-3.53429e-06
7.34067e-06
-2.82055e-06
1.08977e-05
-2.08839e-06
1.45079e-05
-1.35975e-06
1.81551e-05
-6.80429e-07
2.17073e-05
2.4256e-05
9.69408e-06
0.000117081
4.05699e-06
7.60607e-05
-2.12963e-06
4.25441e-05
-7.5677e-06
1.7601e-05
-1.1846e-05
-3.95118e-07
-1.49574e-05
-1.30814e-05
-1.70575e-05
-2.17323e-05
-1.83076e-05
-2.73176e-05
-1.87317e-05
-3.05213e-05
-1.84744e-05
-3.17381e-05
-1.74951e-05
-3.13779e-05
-1.5915e-05
-2.91698e-05
-1.39824e-05
-2.53342e-05
-1.20423e-05
-2.02561e-05
-1.04027e-05
-1.46485e-05
-9.17035e-06
-9.29442e-06
-8.20889e-06
-4.67059e-06
-7.33271e-06
-7.07043e-07
-6.43754e-06
2.90124e-06
-5.48366e-06
6.38679e-06
-4.45978e-06
9.87381e-06
-3.37089e-06
1.3419e-05
-2.25002e-06
1.70343e-05
-1.16406e-06
2.06213e-05
2.3092e-05
1.1276e-05
0.000119271
6.20446e-06
8.11322e-05
2.35055e-07
4.85135e-05
-5.4107e-06
2.32467e-05
-1.02458e-05
4.43996e-06
-1.41447e-05
-9.18252e-06
-1.71555e-05
-1.87215e-05
-1.93645e-05
-2.51087e-05
-2.07996e-05
-2.90862e-05
-2.14148e-05
-3.11228e-05
-2.11998e-05
-3.15929e-05
-2.00992e-05
-3.02704e-05
-1.8241e-05
-2.71924e-05
-1.5971e-05
-2.25262e-05
-1.37662e-05
-1.68533e-05
-1.20007e-05
-1.10599e-05
-1.06907e-05
-5.98056e-06
-9.57671e-06
-1.82106e-06
-8.46062e-06
1.78514e-06
-7.25781e-06
5.18399e-06
-5.94047e-06
8.55647e-06
-4.50868e-06
1.19872e-05
-3.00286e-06
1.55284e-05
-1.52453e-06
1.9143e-05
2.15674e-05
1.28404e-05
0.000121203
8.20082e-06
8.57718e-05
2.42277e-06
5.42915e-05
-3.38004e-06
2.90495e-05
-8.68167e-06
9.7416e-06
-1.32793e-05
-4.58489e-06
-1.71365e-05
-1.48643e-05
-2.02799e-05
-2.19653e-05
-2.27138e-05
-2.66523e-05
-2.43415e-05
-2.94951e-05
-2.51233e-05
-3.08111e-05
-2.47733e-05
-3.06204e-05
-2.33018e-05
-2.8664e-05
-2.08883e-05
-2.49396e-05
-1.80083e-05
-1.97333e-05
-1.53169e-05
-1.37513e-05
-1.32743e-05
-8.02317e-06
-1.17433e-05
-3.35205e-06
-1.03518e-05
3.93583e-07
-8.89031e-06
3.72252e-06
-7.28162e-06
6.94778e-06
-5.49614e-06
1.02017e-05
-3.54074e-06
1.35731e-05
-1.56163e-06
1.71639e-05
2.00058e-05
1.4488e-05
0.000122987
1.01581e-05
9.01017e-05
4.53035e-06
5.99193e-05
-1.40157e-06
3.49815e-05
-7.09406e-06
1.54341e-05
-1.22945e-05
6.15535e-07
-1.69037e-05
-1.0255e-05
-2.09027e-05
-1.79663e-05
-2.42752e-05
-2.32798e-05
-2.69612e-05
-2.68091e-05
-2.88584e-05
-2.8914e-05
-2.96949e-05
-2.97838e-05
-2.91051e-05
-2.92538e-05
-2.71255e-05
-2.69191e-05
-2.39397e-05
-2.29191e-05
-2.01829e-05
-1.75081e-05
-1.67574e-05
-1.14487e-05
-1.42125e-05
-5.8969e-06
-1.22761e-05
-1.54287e-06
-1.04791e-05
1.92561e-06
-8.55779e-06
5.02642e-06
-6.4053e-06
8.04924e-06
-3.95251e-06
1.11203e-05
-1.23466e-06
1.4446e-05
1.87712e-05
1.6346e-05
0.00012469
1.22305e-05
9.42172e-05
6.71037e-06
6.54394e-05
6.71704e-07
4.10201e-05
-5.34105e-06
2.14468e-05
-1.10387e-05
6.31315e-06
-1.62865e-05
-5.00722e-06
-2.10377e-05
-1.3215e-05
-2.52686e-05
-1.90489e-05
-2.89178e-05
-2.316e-05
-3.18943e-05
-2.59374e-05
-3.40808e-05
-2.75974e-05
-3.50454e-05
-2.82892e-05
-3.43344e-05
-2.76301e-05
-3.19248e-05
-2.53287e-05
-2.79563e-05
-2.14766e-05
-2.31204e-05
-1.62846e-05
-1.85821e-05
-1.04352e-05
-1.51018e-05
-5.02314e-06
-1.2427e-05
-7.49262e-07
-9.90016e-06
2.49961e-06
-7.0508e-06
5.19988e-06
-3.49567e-06
7.56514e-06
1.78545e-06
9.16488e-06
8.47145e-06
1.20852e-05
1.85399e-05
0.00012634
1.45788e-05
9.81782e-05
9.13053e-06
7.08877e-05
3.01072e-06
4.714e-05
-3.24282e-06
2.77004e-05
-9.32121e-06
1.23915e-05
-1.50672e-05
7.38788e-07
-2.04172e-05
-7.86504e-06
-2.536e-05
-1.41061e-05
-2.98595e-05
-1.86605e-05
-3.38503e-05
-2.19466e-05
-3.72295e-05
-2.42182e-05
-3.98621e-05
-2.56566e-05
-4.11973e-05
-2.62948e-05
-4.0794e-05
-2.5732e-05
-3.8407e-05
-2.38637e-05
-3.41123e-05
-2.05793e-05
-2.84413e-05
-1.61062e-05
-2.2569e-05
-1.08954e-05
-1.75065e-05
-5.81183e-06
-1.33702e-05
-1.6367e-06
-9.65213e-06
1.48185e-06
-5.88369e-06
3.79671e-06
-2.48231e-06
5.7635e-06
8.59565e-06
-2.60651e-06
2.12001e-05
0.000127933
1.73769e-05
0.000102001
1.20035e-05
7.62611e-05
5.83419e-06
5.33092e-05
-5.89662e-07
3.41242e-05
-6.93963e-06
1.87415e-05
-1.3031e-05
6.83019e-06
-1.879e-05
-2.10609e-06
-2.4233e-05
-8.66313e-06
-2.93951e-05
-1.34983e-05
-3.42055e-05
-1.71362e-05
-3.8584e-05
-1.98397e-05
-4.24647e-05
-2.17759e-05
-4.57018e-05
-2.30577e-05
-4.78181e-05
-2.36157e-05
-4.84383e-05
-2.32435e-05
-4.71827e-05
-2.18349e-05
-4.40407e-05
-1.92482e-05
-3.93304e-05
-1.56057e-05
-3.39994e-05
-1.11429e-05
-2.91615e-05
-6.47456e-06
-2.59679e-05
-1.7118e-06
-2.55134e-05
3.34227e-06
-2.88762e-05
9.12625e-06
1.65529e-05
-3.68334e-05
2.44707e-05
0.000129418
2.08051e-05
0.000105667
1.55374e-05
8.15287e-05
9.36386e-06
5.94828e-05
2.83116e-06
4.06569e-05
-3.70745e-06
2.52801e-05
-1.00371e-05
1.31598e-05
-1.6055e-05
3.91178e-06
-2.17589e-05
-2.95925e-06
-2.72312e-05
-8.02593e-06
-3.25008e-05
-1.18666e-05
-3.75114e-05
-1.48291e-05
-4.22101e-05
-1.70773e-05
-4.65791e-05
-1.86887e-05
-5.05066e-05
-1.96883e-05
-5.37126e-05
-2.00375e-05
-5.59216e-05
-1.96259e-05
-5.70684e-05
-1.81015e-05
-5.71796e-05
-1.54944e-05
-5.65781e-05
-1.17444e-05
-5.59579e-05
-7.09472e-06
-5.59335e-05
-1.73615e-06
-5.6983e-05
4.39171e-06
-5.89794e-05
1.11226e-05
1.81395e-05
-6.0566e-05
2.84627e-05
0.00013071
2.50125e-05
0.000109117
1.99047e-05
8.66366e-05
1.37897e-05
6.55978e-05
7.21573e-06
4.72309e-05
5.60617e-07
3.19352e-05
-5.93121e-06
1.96517e-05
-1.2118e-05
1.00986e-05
-1.79423e-05
2.86498e-06
-2.3438e-05
-2.53019e-06
-2.87188e-05
-6.5858e-06
-3.38382e-05
-9.70969e-06
-3.87817e-05
-1.21339e-05
-4.35381e-05
-1.39322e-05
-4.80987e-05
-1.51277e-05
-5.24303e-05
-1.57058e-05
-5.64568e-05
-1.55994e-05
-5.98857e-05
-1.46726e-05
-6.25507e-05
-1.28294e-05
-6.43182e-05
-9.97696e-06
-6.52786e-05
-6.13427e-06
-6.55773e-05
-1.43751e-06
-6.50463e-05
3.86071e-06
-6.3379e-05
9.4554e-06
1.47499e-05
-5.99895e-05
3.3255e-05
0.000131688
3.01217e-05
0.000112251
2.52626e-05
9.14957e-05
1.92909e-05
7.15695e-05
1.2758e-05
5.37638e-05
6.06925e-06
3.8624e-05
-5.0103e-07
2.6222e-05
-6.77644e-06
1.6374e-05
-1.26663e-05
8.75486e-06
-1.81509e-05
2.95442e-06
-2.32854e-05
-1.45129e-06
-2.81594e-05
-4.83573e-06
-3.28512e-05
-7.44208e-06
-3.73785e-05
-9.40494e-06
-4.17329e-05
-1.07733e-05
-4.58922e-05
-1.15465e-05
-4.97912e-05
-1.17004e-05
-5.32964e-05
-1.11674e-05
-5.62564e-05
-9.8694e-06
-5.8478e-05
-7.75535e-06
-5.97275e-05
-4.88476e-06
-5.9757e-05
-1.40802e-06
-5.83551e-05
2.45884e-06
-5.53163e-05
6.41655e-06
1.00115e-05
-5.05779e-05
3.88835e-05
0.000132204
3.62091e-05
0.000114925
3.17287e-05
9.59761e-05
2.6016e-05
7.72822e-05
1.96258e-05
6.0154e-05
1.29931e-05
4.52567e-05
6.4249e-06
3.27901e-05
1.27164e-07
2.26717e-05
-5.77802e-06
1.466e-05
-1.12459e-05
8.42227e-06
-1.62942e-05
3.59704e-06
-2.09836e-05
-1.46354e-07
-2.5372e-05
-3.05365e-06
-2.94868e-05
-5.29014e-06
-3.33252e-05
-6.93489e-06
-3.68642e-05
-8.00752e-06
-4.0071e-05
-8.4936e-06
-4.28629e-05
-8.37556e-06
-4.51179e-05
-7.61439e-06
-4.66867e-05
-6.18653e-06
-4.73902e-05
-4.18124e-06
-4.70466e-05
-1.7516e-06
-4.55194e-05
9.31617e-07
-4.27767e-05
3.67379e-06
6.25417e-06
-3.90193e-05
4.53251e-05
0.000132095
4.3284e-05
0.000116966
3.93532e-05
9.99069e-05
3.40537e-05
8.25817e-05
2.79366e-05
6.62711e-05
2.14634e-05
5.17299e-05
1.49764e-05
3.92771e-05
8.71085e-06
2.89373e-05
2.815e-06
2.05559e-05
-2.64021e-06
1.38775e-05
-7.64678e-06
8.60361e-06
-1.22374e-05
4.44422e-06
-1.64488e-05
1.15776e-06
-2.03043e-05
-1.43464e-06
-2.37976e-05
-3.44155e-06
-2.68976e-05
-4.90754e-06
-2.95642e-05
-5.82695e-06
-3.17542e-05
-6.18563e-06
-3.34115e-05
-5.957e-06
-3.44591e-05
-5.13897e-06
-3.48122e-05
-3.82814e-06
-3.4394e-05
-2.16976e-06
-3.31662e-05
-2.96166e-07
-3.11626e-05
1.67009e-06
3.60989e-06
-2.85183e-05
5.24874e-05
0.000131194
5.1274e-05
0.000118179
4.80995e-05
0.000103081
4.34097e-05
8.72714e-05
3.77358e-05
7.19449e-05
3.1557e-05
5.79088e-05
2.5249e-05
4.55851e-05
1.90807e-05
3.51056e-05
1.32271e-05
2.64094e-05
7.78466e-06
1.93199e-05
2.78658e-06
1.36017e-05
-1.7765e-06
9.00731e-06
-5.92946e-06
5.31072e-06
-9.68991e-06
2.32581e-06
-1.30509e-05
-8.0612e-08
-1.59816e-05
-1.9768e-06
-1.84466e-05
-3.36195e-06
-2.04232e-05
-4.20898e-06
-2.18907e-05
-4.48956e-06
-2.28168e-05
-4.21289e-06
-2.31647e-05
-3.48025e-06
-2.2911e-05
-2.42343e-06
-2.2057e-05
-1.1502e-06
-2.06382e-05
2.51353e-07
1.69976e-06
-1.87281e-05
6.02048e-05
0.000129354
6.00132e-05
0.000118371
5.78237e-05
0.000105271
5.39805e-05
9.11146e-05
4.89677e-05
7.69577e-05
4.3266e-05
6.36105e-05
3.72778e-05
5.15733e-05
3.13065e-05
4.10769e-05
2.556e-05
3.2156e-05
2.01628e-05
2.4717e-05
1.51725e-05
1.8592e-05
1.05989e-05
1.35809e-05
6.42834e-06
9.48129e-06
2.6491e-06
6.10505e-06
-7.26515e-07
3.295e-06
-3.66486e-06
9.61547e-07
-6.14963e-06
-8.77184e-07
-8.18167e-06
-2.17694e-06
-9.75196e-06
-2.91927e-06
-1.08267e-05
-3.13818e-06
-1.13796e-05
-2.92731e-06
-1.14111e-05
-2.3919e-06
-1.0937e-05
-1.62431e-06
-9.98923e-06
-6.96458e-07
3.27227e-07
-8.61669e-06
6.82467e-05
0.000126469
6.92418e-05
0.000117376
6.82626e-05
0.00010625
6.55273e-05
9.385e-05
6.14396e-05
8.10454e-05
5.64543e-05
6.85957e-05
5.09862e-05
5.70414e-05
4.53686e-05
4.66945e-05
3.98448e-05
3.76799e-05
3.45735e-05
2.99883e-05
2.96413e-05
2.35242e-05
2.50795e-05
1.81428e-05
2.08861e-05
1.36746e-05
1.70547e-05
9.93645e-06