/*--------------------------------*- C++ -*----------------------------------*\
| =========                 |                                                 |
| \\      /  F ield         | OpenFOAM: The Open Source CFD Toolbox           |
|  \\    /   O peration     | Version:  v2012                                 |
|   \\  /    A nd           | Website:  www.openfoam.com                      |
|    \\/     M anipulation  |                                                 |
\*---------------------------------------------------------------------------*/
FoamFile
{
    version     2.0;
    format      ascii;
    class       volVectorField;
    location    "503";
    object      U;
}
// * * * * * * * * * * * * * * * * * * * * * * * * * * * * * * * * * * * * * //

dimensions      [0 1 -1 0 0 0 0];


internalField   nonuniform List<vector> 
6556
(
(6.60538e-05 -0.999791 0)
(0.000172563 -1.00003 0)
(0.000119409 -1.00002 0)
(6.22665e-05 -1.00001 0)
(1.93544e-05 -1.00001 0)
(-1.92198e-05 -1.00001 0)
(-6.21537e-05 -1.00001 0)
(-0.000119337 -1.00002 0)
(-0.000172549 -1.00003 0)
(-6.60496e-05 -0.999791 0)
(0.000269283 -0.999532 0)
(0.000320904 -1.00011 0)
(0.000246278 -1.00012 0)
(0.000147302 -1.0001 0)
(4.86813e-05 -1.00009 0)
(-4.82686e-05 -1.00009 0)
(-0.000146954 -1.0001 0)
(-0.000246032 -1.00012 0)
(-0.000320864 -1.00011 0)
(-0.000269271 -0.999532 0)
(0.000332496 -0.999151 0)
(0.000365854 -1.00013 0)
(0.000296443 -1.00024 0)
(0.000190327 -1.00025 0)
(6.49482e-05 -1.00024 0)
(-6.41494e-05 -1.00024 0)
(-0.00018962 -1.00025 0)
(-0.000295887 -1.00024 0)
(-0.000365374 -1.00013 0)
(-0.000332342 -0.999151 0)
(0.000335677 -0.998723 0)
(0.000360141 -1.00012 0)
(0.00030518 -1.00035 0)
(0.000203961 -1.0004 0)
(7.09109e-05 -1.00041 0)
(-6.95684e-05 -1.00041 0)
(-0.00020276 -1.0004 0)
(-0.000304206 -1.00035 0)
(-0.000359498 -1.00012 0)
(-0.000335367 -0.998723 0)
(0.000323103 -0.998312 0)
(0.000346073 -1.00009 0)
(0.00029999 -1.00045 0)
(0.000202971 -1.00056 0)
(7.1531e-05 -1.00059 0)
(-6.94058e-05 -1.00059 0)
(-0.000201052 -1.00056 0)
(-0.000298438 -1.00045 0)
(-0.000345084 -1.0001 0)
(-0.000322599 -0.998313 0)
(0.0003058 -0.997931 0)
(0.000326018 -1.00007 0)
(0.000289264 -1.00054 0)
(0.000196259 -1.0007 0)
(6.97842e-05 -1.00075 0)
(-6.65135e-05 -1.00075 0)
(-0.000193307 -1.0007 0)
(-0.000286936 -1.00054 0)
(-0.000324467 -1.00007 0)
(-0.000305024 -0.997933 0)
(0.000288215 -0.997575 0)
(0.000306163 -1.00004 0)
(0.00027324 -1.00063 0)
(0.000186483 -1.00084 0)
(6.69878e-05 -1.00091 0)
(-6.19762e-05 -1.00091 0)
(-0.000181963 -1.00084 0)
(-0.000269685 -1.00063 0)
(-0.000303757 -1.00004 0)
(-0.000287091 -0.997579 0)
(0.000272241 -0.997238 0)
(0.00028848 -1.00002 0)
(0.000258374 -1.00071 0)
(0.000176886 -1.00097 0)
(6.44757e-05 -1.00106 0)
(-5.67947e-05 -1.00106 0)
(-0.000169955 -1.00097 0)
(-0.000252876 -1.00071 0)
(-0.000284776 -1.00002 0)
(-0.000270538 -0.997245 0)
(0.00025858 -0.996918 0)
(0.000273806 -0.999994 0)
(0.00024611 -1.00078 0)
(0.000168992 -1.00109 0)
(6.302e-05 -1.0012 0)
(-5.12769e-05 -1.00121 0)
(-0.000158389 -1.00109 0)
(-0.000237676 -1.00079 0)
(-0.000268148 -1 0)
(-0.000255938 -0.996929 0)
(0.000247365 -0.996612 0)
(0.000262354 -0.999973 0)
(0.000236817 -1.00085 0)
(0.000163469 -1.0012 0)
(6.31201e-05 -1.00134 0)
(-4.52146e-05 -1.00134 0)
(-0.000147299 -1.00121 0)
(-0.000223954 -1.00086 0)
(-0.000253771 -0.999987 0)
(-0.000243326 -0.996628 0)
(0.000238507 -0.996316 0)
(0.000254082 -0.999953 0)
(0.000230723 -1.00092 0)
(0.000160822 -1.00131 0)
(6.53243e-05 -1.00147 0)
(-3.80916e-05 -1.00147 0)
(-0.000136235 -1.00132 0)
(-0.000211188 -1.00093 0)
(-0.000241125 -0.999974 0)
(-0.00023242 -0.996342 0)
(0.000231929 -0.996028 0)
(0.000249138 -0.999933 0)
(0.000228213 -1.00098 0)
(0.000161637 -1.00141 0)
(7.03997e-05 -1.00159 0)
(-2.90931e-05 -1.00159 0)
(-0.000124422 -1.00143 0)
(-0.000198651 -1.00101 0)
(-0.000229532 -0.999966 0)
(-0.000222825 -0.996067 0)
(0.000227709 -0.995744 0)
(0.000248007 -0.999911 0)
(0.000230207 -1.00104 0)
(0.000166976 -1.00151 0)
(7.9575e-05 -1.0017 0)
(-1.69774e-05 -1.00171 0)
(-0.00011076 -1.00154 0)
(-0.00018547 -1.00108 0)
(-0.000218311 -0.999961 0)
(-0.000214162 -0.995804 0)
(0.000226126 -0.99546 0)
(0.000251398 -0.999886 0)
(0.000238076 -1.00109 0)
(0.000178759 -1.0016 0)
(9.487e-05 -1.00182 0)
(1.50413e-07 -1.00183 0)
(-9.37531e-05 -1.00164 0)
(-0.0001707 -1.00115 0)
(-0.000206953 -0.999961 0)
(-0.000206168 -0.995551 0)
(0.000227638 -0.995172 0)
(0.000260319 -0.999854 0)
(0.000253261 -1.00114 0)
(0.00020001 -1.00169 0)
(0.000119438 -1.00193 0)
(2.5183e-05 -1.00195 0)
(-7.13402e-05 -1.00175 0)
(-0.000153401 -1.00123 0)
(-0.000195424 -0.999968 0)
(-0.00019907 -0.995309 0)
(0.000233258 -0.994874 0)
(0.000277714 -0.999812 0)
(0.000280972 -1.00118 0)
(0.000235446 -1.00177 0)
(0.000158529 -1.00203 0)
(6.2801e-05 -1.00207 0)
(-4.04984e-05 -1.00187 0)
(-0.00013287 -1.00132 0)
(-0.000184366 -0.999984 0)
(-0.000194462 -0.995075 0)
(0.000244496 -0.994557 0)
(0.000307708 -0.999752 0)
(0.00032673 -1.00121 0)
(0.000292768 -1.00185 0)
(0.000219964 -1.00214 0)
(0.000120757 -1.0022 0)
(3.60074e-06 -1.002 0)
(-0.000109821 -1.00143 0)
(-0.000179781 -1.00001 0)
(-0.000196551 -0.994846 0)
(0.000263523 -0.994206 0)
(0.000356277 -0.999666 0)
(0.000399853 -1.00121 0)
(0.000384561 -1.00191 0)
(0.000319915 -1.00225 0)
(0.000213124 -1.00234 0)
(6.92616e-05 -1.00217 0)
(-9.01165e-05 -1.00159 0)
(-0.000204028 -1.00008 0)
(-0.000225894 -0.994584 0)
(0.00029338 -0.993805 0)
(0.000431836 -0.999536 0)
(0.000514374 -1.00118 0)
(0.000530454 -1.00195 0)
(0.000484363 -1.00235 0)
(0.00037241 -1.0025 0)
(0.000189953 -1.00238 0)
(-4.72714e-05 -1.0018 0)
(-0.000237911 -1.00016 0)
(-0.000170112 -0.994255 0)
(0.000337291 -0.993325 0)
(0.00054457 -0.99934 0)
(0.000687993 -1.00109 0)
(0.000757241 -1.00195 0)
(0.000747159 -1.00244 0)
(0.000640826 -1.0027 0)
(0.000388394 -1.0027 0)
(-3.87365e-05 -1.00225 0)
(-0.000677839 -1.00085 0)
(-0.000889635 -0.996645 0)
(0.000402312 -0.992731 0)
(0.000706744 -0.999044 0)
(0.000944789 -1.00091 0)
(0.00110673 -1.00187 0)
(0.00118461 -1.00248 0)
(0.00117433 -1.00288 0)
(0.00102765 -1.00312 0)
(0.000877971 -1.00291 0)
(0.00168573 -1.00088 0)
(0.00919349 -0.981801 0)
(0.000492821 -0.991976 0)
(0.000926925 -0.998602 0)
(0.00129991 -1.0006 0)
(0.00159856 -1.00165 0)
(0.00181827 -1.00237 0)
(0.00197139 -1.00288 0)
(0.00206343 -1.00312 0)
(0.00196394 -1.00283 0)
(0.00234721 -0.999445 0)
(0.0166543 -0.964063 0)
(0.000608977 -0.99101 0)
(0.00120816 -0.997962 0)
(0.00175723 -1.00008 0)
(0.00223383 -1.00124 0)
(0.00263405 -1.00204 0)
(0.00298564 -1.00262 0)
(0.00334988 -1.00285 0)
(0.00360188 -1.00206 0)
(0.00355414 -0.996876 0)
(0.0206615 -0.949451 0)
(0.000751341 -0.98978 0)
(0.00155242 -0.997073 0)
(0.00231906 -0.999316 0)
(0.00301504 -1.00056 0)
(0.00363818 -1.00145 0)
(0.00422599 -1.00207 0)
(0.00490628 -1.00218 0)
(0.00581547 -1.00065 0)
(0.00591012 -0.992724 0)
(0.0243246 -0.933112 0)
(0.00092132 -0.988231 0)
(0.00196363 -0.99588 0)
(0.00299105 -0.998252 0)
(0.00394875 -0.999589 0)
(0.00483902 -1.00054 0)
(0.00570447 -1.00116 0)
(0.00669756 -1.00104 0)
(0.00822548 -0.998534 0)
(0.00885106 -0.98703 0)
(0.0269928 -0.914577 0)
(0.00112122 -0.986304 0)
(0.00244752 -0.994329 0)
(0.00378166 -0.996835 0)
(0.00504433 -0.99826 0)
(0.00624299 -0.999262 0)
(0.00742505 -0.999834 0)
(0.0087443 -0.999396 0)
(0.010824 -0.995716 0)
(0.0122563 -0.980174 0)
(0.029303 -0.896606 0)
(0.00135419 -0.983936 0)
(0.00301211 -0.992358 0)
(0.00470448 -0.995005 0)
(0.00632105 -0.99652 0)
(0.00787476 -0.997566 0)
(0.00941964 -0.998064 0)
(0.0111022 -0.997232 0)
(0.0136891 -0.992236 0)
(0.0161032 -0.972428 0)
(0.031173 -0.880074 0)
(0.00162539 -0.98105 0)
(0.00367243 -0.989896 0)
(0.00577847 -0.992695 0)
(0.00780856 -0.994305 0)
(0.00977628 -0.995391 0)
(0.011747 -0.995793 0)
(0.0138639 -0.994506 0)
(0.0169469 -0.988107 0)
(0.0204382 -0.964077 0)
(0.0337152 -0.865216 0)
(0.00194187 -0.977561 0)
(0.00444187 -0.98688 0)
(0.00702714 -0.989827 0)
(0.00954124 -0.991535 0)
(0.0119939 -0.992654 0)
(0.0144687 -0.992929 0)
(0.0171258 -0.991116 0)
(0.0207455 -0.983207 0)
(0.0253062 -0.955131 0)
(0.037872 -0.851629 0)
(0.00230699 -0.973374 0)
(0.00532783 -0.983204 0)
(0.00847732 -0.986311 0)
(0.0115504 -0.988115 0)
(0.0145631 -0.989255 0)
(0.0176142 -0.989369 0)
(0.0208921 -0.986953 0)
(0.0251021 -0.977423 0)
(0.0304678 -0.945521 0)
(0.0426599 -0.839369 0)
(0.00272469 -0.968385 0)
(0.00634608 -0.978745 0)
(0.010152 -0.982046 0)
(0.0138646 -0.983948 0)
(0.0175159 -0.985098 0)
(0.0212108 -0.985026 0)
(0.0251606 -0.981963 0)
(0.0299749 -0.97079 0)
(0.0361361 -0.935473 0)
(0.0475218 -0.828753 0)
(0.00320322 -0.962473 0)
(0.00751727 -0.973408 0)
(0.0120741 -0.976919 0)
(0.016518 -0.978928 0)
(0.0208956 -0.980089 0)
(0.0253102 -0.979823 0)
(0.0299837 -0.976113 0)
(0.0354391 -0.963367 0)
(0.042412 -0.925026 0)
(0.0526824 -0.819769 0)
(0.0037508 -0.955497 0)
(0.00886127 -0.967063 0)
(0.0142757 -0.970806 0)
(0.0195557 -0.972937 0)
(0.0247588 -0.974119 0)
(0.0299829 -0.97367 0)
(0.0354399 -0.969344 0)
(0.0416013 -0.955125 0)
(0.0491575 -0.91462 0)
(0.05834 -0.812283 0)
(0.00437608 -0.947303 0)
(0.0104009 -0.959564 0)
(0.0167958 -0.963567 0)
(0.0230316 -0.965839 0)
(0.0291742 -0.967065 0)
(0.035313 -0.966464 0)
(0.0416357 -0.961596 0)
(0.0485329 -0.946175 0)
(0.0565042 -0.904419 0)
(0.0647327 -0.806116 0)
(0.0050885 -0.937713 0)
(0.012161 -0.950745 0)
(0.0196768 -0.955041 0)
(0.0270048 -0.957479 0)
(0.0342192 -0.958778 0)
(0.041397 -0.958078 0)
(0.0486907 -0.952789 0)
(0.0563813 -0.936533 0)
(0.0647082 -0.894444 0)
(0.0721701 -0.801064 0)
(0.00589765 -0.92653 0)
(0.0141669 -0.940418 0)
(0.0229615 -0.945045 0)
(0.0315364 -0.947677 0)
(0.0399752 -0.949085 0)
(0.0483392 -0.948355 0)
(0.0567371 -0.94281 0)
(0.0653242 -0.926137 0)
(0.0740527 -0.884607 0)
(0.0809813 -0.796879 0)
(0.00681195 -0.913537 0)
(0.0164417 -0.928373 0)
(0.0266895 -0.933375 0)
(0.036683 -0.936229 0)
(0.0465185 -0.937785 0)
(0.0562404 -0.937104 0)
(0.0659063 -0.93149 0)
(0.0755412 -0.914845 0)
(0.0848131 -0.874712 0)
(0.0915052 -0.793237 0)
(0.00783942 -0.898496 0)
(0.0190037 -0.914384 0)
(0.0308927 -0.919807 0)
(0.0424904 -0.922912 0)
(0.0539105 -0.924651 0)
(0.0651822 -0.9241 0)
(0.0763096 -0.918611 0)
(0.087191 -0.902432 0)
(0.0972391 -0.864447 0)
(0.104078 -0.789719 0)
(0.00899737 -0.881157 0)
(0.0218649 -0.898209 0)
(0.0355909 -0.904103 0)
(0.0489861 -0.907483 0)
(0.0621874 -0.909437 0)
(0.0752136 -0.909088 0)
(0.0880176 -0.903907 0)
(0.100383 -0.88859 0)
(0.111512 -0.853384 0)
(0.118957 -0.78578 0)
(0.0102904 -0.861255 0)
(0.0250312 -0.879615 0)
(0.0407886 -0.886022 0)
(0.056174 -0.889699 0)
(0.0713521 -0.891888 0)
(0.0863386 -0.8918 0)
(0.101043 -0.887082 0)
(0.115151 -0.872958 0)
(0.127714 -0.841013 0)
(0.136278 -0.780774 0)
(0.0117061 -0.838512 0)
(0.0284999 -0.858365 0)
(0.046474 -0.865327 0)
(0.0640319 -0.869319 0)
(0.0813693 -0.871758 0)
(0.0985096 -0.87197 0)
(0.115329 -0.867831 0)
(0.131444 -0.855141 0)
(0.145813 -0.826771 0)
(0.156038 -0.773977 0)
(0.0132379 -0.812673 0)
(0.0322573 -0.834228 0)
(0.0526175 -0.841802 0)
(0.0725104 -0.846128 0)
(0.0921652 -0.848823 0)
(0.111625 -0.849355 0)
(0.130748 -0.845863 0)
(0.149112 -0.834747 0)
(0.165645 -0.810082 0)
(0.178064 -0.764628 0)
(0.014879 -0.783494 0)
(0.0362825 -0.806996 0)
(0.0591751 -0.815254 0)
(0.081537 -0.819944 0)
(0.103631 -0.822901 0)
(0.125533 -0.823756 0)
(0.147102 -0.820933 0)
(0.167909 -0.811425 0)
(0.186911 -0.790414 0)
(0.201997 -0.751985 0)
(0.0166229 -0.750749 0)
(0.0405519 -0.776487 0)
(0.0660945 -0.785532 0)
(0.0910225 -0.790632 0)
(0.11563 -0.793865 0)
(0.140043 -0.79504 0)
(0.164137 -0.792867 0)
(0.187508 -0.784906 0)
(0.209194 -0.76733 0)
(0.227305 -0.735402 0)
(0.0184646 -0.714225 0)
(0.0450441 -0.742549 0)
(0.0733217 -0.752527 0)
(0.100871 -0.758116 0)
(0.128013 -0.761662 0)
(0.15494 -0.763155 0)
(0.18156 -0.76159 0)
(0.207522 -0.755042 0)
(0.231985 -0.74055 0)
(0.253321 -0.714417 0)
(0.0204034 -0.673722 0)
(0.0497462 -0.705062 0)
(0.0808106 -0.716183 0)
(0.110991 -0.722384 0)
(0.14063 -0.726314 0)
(0.170002 -0.728145 0)
(0.199066 -0.727139 0)
(0.227543 -0.721829 0)
(0.254739 -0.709988 0)
(0.279308 -0.688818 0)
(0.0224453 -0.629043 0)
(0.0546594 -0.663935 0)
(0.0885307 -0.676494 0)
(0.121305 -0.683495 0)
(0.153341 -0.687929 0)
(0.18502 -0.690152 0)
(0.216363 -0.689673 0)
(0.247175 -0.685419 0)
(0.276923 -0.675768 0)
(0.304545 -0.658679 0)
(0.0246053 -0.579975 0)
(0.0598042 -0.619094 0)
(0.0964734 -0.633509 0)
(0.131754 -0.641577 0)
(0.166028 -0.646696 0)
(0.199806 -0.649413 0)
(0.233187 -0.649462 0)
(0.266067 -0.646106 0)
(0.29807 -0.638214 0)
(0.3284 -0.624356 0)
(0.0269091 -0.526274 0)
(0.0652232 -0.570482 0)
(0.104652 -0.587331 0)
(0.142297 -0.596835 0)
(0.178584 -0.602887 0)
(0.214189 -0.606248 0)
(0.249306 -0.606869 0)
(0.283921 -0.604298 0)
(0.317801 -0.597798 0)
(0.350386 -0.586424 0)
(0.0293942 -0.467639 0)
(0.0709753 -0.518052 0)
(0.113089 -0.538131 0)
(0.152888 -0.549558 0)
(0.190891 -0.556853 0)
(0.227993 -0.561051 0)
(0.264499 -0.562323 0)
(0.300479 -0.560473 0)
(0.335825 -0.555083 0)
(0.370166 -0.545586 0)
(0.0320951 -0.403715 0)
(0.0771203 -0.46179 0)
(0.121773 -0.486155 0)
(0.163422 -0.500118 0)
(0.202767 -0.509019 0)
(0.240984 -0.514267 0)
(0.278508 -0.516287 0)
(0.315481 -0.515128 0)
(0.351893 -0.510641 0)
(0.387518 -0.502562 0)
(0.0351203 -0.33405 0)
(0.0836173 -0.401791 0)
(0.130529 -0.431843 0)
(0.173634 -0.449046 0)
(0.213885 -0.459907 0)
(0.252796 -0.466384 0)
(0.290964 -0.469224 0)
(0.32859 -0.468728 0)
(0.365727 -0.464989 0)
(0.402245 -0.457989 0)
(0.0384263 -0.258716 0)
(0.0903044 -0.338282 0)
(0.138786 -0.375364 0)
(0.182816 -0.396758 0)
(0.223546 -0.410032 0)
(0.262776 -0.417889 0)
(0.301272 -0.421557 0)
(0.33929 -0.421658 0)
(0.376912 -0.418527 0)
(0.414058 -0.412354 0)
(0.0394485 -0.175872 0)
(0.0951067 -0.274308 0)
(0.145397 -0.318677 0)
(0.190021 -0.344142 0)
(0.230727 -0.359891 0)
(0.26989 -0.369143 0)
(0.308484 -0.373572 0)
(0.346757 -0.374156 0)
(0.38477 -0.371481 0)
(0.422457 -0.365926 0)
(0.0335681 -0.0878837 0)
(0.090812 -0.200055 0)
(0.145067 -0.259352 0)
(0.192057 -0.291607 0)
(0.233325 -0.310128 0)
(0.27247 -0.320534 0)
(0.31115 -0.325453 0)
(0.349729 -0.326291 0)
(0.388241 -0.323872 0)
(0.42659 -0.318737 0)
(0.0212325 -0.0198283 0)
(0.0723764 -0.12022 0)
(0.129575 -0.192966 0)
(0.181401 -0.235808 0)
(0.225987 -0.259372 0)
(0.26687 -0.271602 0)
(0.306617 -0.276947 0)
(0.34613 -0.277766 0)
(0.385625 -0.275336 0)
(0.425049 -0.270405 0)
(0.00899296 0.0210992 0)
(0.046551 -0.0487425 0)
(0.0983146 -0.121887 0)
(0.151872 -0.17307 0)
(0.201052 -0.203499 0)
(0.246358 -0.219542 0)
(0.289599 -0.226427 0)
(0.331881 -0.227641 0)
(0.373713 -0.225271 0)
(0.415235 -0.220509 0)
(-0.0045532 0.0410345 0)
(0.021781 0.000700412 0)
(0.0592571 -0.0580452 0)
(0.105215 -0.1075 0)
(0.154336 -0.140756 0)
(0.203753 -0.160346 0)
(0.252332 -0.169924 0)
(0.299803 -0.172801 0)
(0.34625 -0.171378 0)
(0.391834 -0.167288 0)
(-0.0204229 0.0422857 0)
(-0.00769373 0.019699 0)
(0.0158854 -0.0148596 0)
(0.0484864 -0.0508365 0)
(0.0904847 -0.0785186 0)
(0.13941 -0.0961028 0)
(0.192181 -0.105366 0)
(0.24568 -0.109113 0)
(0.298382 -0.108773 0)
(0.35002 -0.105607 0)
(-0.025444 0.0118952 0)
(-0.0430254 0.000748297 0)
(-0.0476952 -0.0152845 0)
(-0.0227273 -0.0295856 0)
(0.0105292 -0.041033 0)
(0.0552754 -0.0467517 0)
(0.10709 -0.050318 0)
(0.167683 -0.0530638 0)
(0.229412 -0.0537115 0)
(0.288819 -0.0521652 0)
(-0.041121 -0.155236 0)
(-0.121531 0.0124635 0)
(-0.106767 0.0182567 0)
(-0.0912452 0.0206511 0)
(-0.0731745 0.0234595 0)
(-0.0512566 0.0250972 0)
(-0.0292605 0.0259401 0)
(-0.00743097 0.0264461 0)
(0.0140551 0.0254407 0)
(0.034708 0.0236607 0)
(0.0550169 0.0220345 0)
(0.0741242 0.0198729 0)
(0.0897729 0.0168257 0)
(0.102419 0.0133972 0)
(0.111774 0.00979898 0)
(0.117599 0.00665021 0)
(0.119815 0.00329362 0)
(0.118161 -0.000540291 0)
(0.112455 -0.00466237 0)
(0.102363 -0.00889441 0)
(0.087723 -0.0131252 0)
(0.0686313 -0.0169319 0)
(0.0454853 -0.0185751 0)
(0.0203233 -0.0154943 0)
(0.00416394 -0.00796846 0)
(-0.0244744 -0.228592 0)
(-0.0740849 -0.0115333 0)
(-0.0805792 0.0194032 0)
(-0.0763296 0.0292014 0)
(-0.0657535 0.0359523 0)
(-0.0511727 0.0406416 0)
(-0.0340007 0.0433966 0)
(-0.0152036 0.044259 0)
(0.00420443 0.0429138 0)
(0.0229994 0.0403503 0)
(0.0402746 0.0370874 0)
(0.0556015 0.0326396 0)
(0.0687215 0.0269365 0)
(0.0794275 0.0206059 0)
(0.0875265 0.014025 0)
(0.0928812 0.00730873 0)
(0.0954467 0.00039774 0)
(0.0954636 -0.00672457 0)
(0.0929342 -0.0141578 0)
(0.0877511 -0.0219878 0)
(0.0797352 -0.0300808 0)
(0.068547 -0.0377857 0)
(0.0541362 -0.0429783 0)
(0.0338426 -0.0415748 0)
(0.0131296 -0.0302327 0)
(-0.00410036 -0.303401 0)
(-0.0539536 -0.043543 0)
(-0.0676464 0.0144029 0)
(-0.0687918 0.0357981 0)
(-0.0626002 0.0490028 0)
(-0.0516333 0.0578596 0)
(-0.0376099 0.0631847 0)
(-0.0219095 0.065351 0)
(-0.00515355 0.0647065 0)
(0.0119543 0.0617224 0)
(0.0277238 0.0566947 0)
(0.0413448 0.0498727 0)
(0.0528397 0.0415761 0)
(0.0621482 0.0324037 0)
(0.0690952 0.0227887 0)
(0.0736545 0.0129799 0)
(0.0758725 0.00302745 0)
(0.0758593 -0.00718552 0)
(0.073746 -0.0178169 0)
(0.0696383 -0.028984 0)
(0.0635956 -0.0406507 0)
(0.0554982 -0.0523202 0)
(0.0451613 -0.0622224 0)
(0.0312805 -0.0657616 0)
(0.0154289 -0.0563185 0)
(0.0068342 -0.376425 0)
(-0.0463686 -0.0821655 0)
(-0.0645195 0.00373378 0)
(-0.0685188 0.0386302 0)
(-0.0646718 0.0594229 0)
(-0.0556148 0.0732671 0)
(-0.0433738 0.0818148 0)
(-0.0293146 0.0858758 0)
(-0.0143364 0.086179 0)
(0.000918899 0.0826331 0)
(0.0152904 0.075478 0)
(0.0278473 0.0657942 0)
(0.0383879 0.0545737 0)
(0.0468353 0.0423944 0)
(0.0530221 0.0297431 0)
(0.0570083 0.0169564 0)
(0.0589318 0.00417123 0)
(0.0589508 -0.00864615 0)
(0.0572228 -0.0216593 0)
(0.05389 -0.0350626 0)
(0.0490635 -0.0489665 0)
(0.0427534 -0.06317 0)
(0.0347525 -0.076498 0)
(0.0246639 -0.0851261 0)
(0.0143952 -0.0858832 0)
(0.0159853 -0.437224 0)
(-0.0380291 -0.130361 0)
(-0.06214 -0.0140777 0)
(-0.0695863 0.0374236 0)
(-0.0685486 0.0673285 0)
(-0.0611425 0.0866173 0)
(-0.0504569 0.0985089 0)
(-0.0376957 0.104412 0)
(-0.0240748 0.105154 0)
(-0.0104624 0.101001 0)
(0.00248966 0.09244 0)
(0.0142082 0.0805769 0)
(0.0241712 0.0666837 0)
(0.0320342 0.0516211 0)
(0.0377173 0.0361101 0)
(0.0413552 0.0206387 0)
(0.0431759 0.005407 0)
(0.043402 -0.00962617 0)
(0.0422127 -0.0246468 0)
(0.0397547 -0.0398788 0)
(0.0361387 -0.0554873 0)
(0.0314097 -0.0714089 0)
(0.0254003 -0.0868708 0)
(0.0176174 -0.0992119 0)
(0.011433 -0.105436 0)
(0.0247136 -0.48573 0)
(-0.0269973 -0.182935 0)
(-0.0547384 -0.0391206 0)
(-0.0678695 0.0309921 0)
(-0.0704073 0.0717743 0)
(-0.065691 0.0972753 0)
(-0.0571803 0.112972 0)
(-0.0463271 0.120895 0)
(-0.0342795 0.122228 0)
(-0.021951 0.117699 0)
(-0.0100231 0.108063 0)
(0.000892143 0.0944009 0)
(0.0102208 0.0780144 0)
(0.0175725 0.0601825 0)
(0.0228715 0.0419864 0)
(0.0263044 0.0241162 0)
(0.0281738 0.00682064 0)
(0.0287549 -0.00998585 0)
(0.0282399 -0.0265644 0)
(0.0267649 -0.0432074 0)
(0.0244224 -0.0601363 0)
(0.0212573 -0.0773581 0)
(0.0171919 -0.0943101 0)
(0.0114668 -0.109189 0)
(0.00813499 -0.118619 0)
(0.0305981 -0.523388 0)
(-0.0135348 -0.233872 0)
(-0.0431935 -0.0713142 0)
(-0.061455 0.0181193 0)
(-0.0681685 0.0711116 0)
(-0.0676118 0.104069 0)
(-0.0621399 0.124208 0)
(-0.053914 0.134722 0)
(-0.0439582 0.137306 0)
(-0.0332196 0.132968 0)
(-0.0224191 0.122572 0)
(-0.0123153 0.107284 0)
(-0.00356257 0.0886099 0)
(0.00340046 0.0681922 0)
(0.00846168 0.0475313 0)
(0.0118355 0.0275671 0)
(0.0138899 0.00858848 0)
(0.0149467 -0.00957987 0)
(0.015205 -0.0273108 0)
(0.014787 -0.0449806 0)
(0.0137691 -0.0628705 0)
(0.0121937 -0.0810474 0)
(0.0100617 -0.0990863 0)
(0.00640864 -0.115675 0)
(0.00562456 -0.127127 0)
(0.0352162 -0.553144 0)
(-0.000298151 -0.279287 0)
(-0.0307311 -0.105609 0)
(-0.0517899 -0.000705885 0)
(-0.0628584 0.0643124 0)
(-0.0665447 0.105579 0)
(-0.0650291 0.131096 0)
(-0.0599925 0.145008 0)
(-0.0526928 0.149563 0)
(-0.0440945 0.14614 0)
(-0.0347242 0.135646 0)
(-0.0254834 0.119233 0)
(-0.0171916 0.0986288 0)
(-0.0104262 0.0758759 0)
(-0.00540978 0.0529563 0)
(-0.00193566 0.0311602 0)
(0.000419424 0.010841 0)
(0.00203148 -0.00830719 0)
(0.00311316 -0.0268162 0)
(0.00377767 -0.0451606 0)
(0.00408972 -0.0636726 0)
(0.00408936 -0.0824627 0)
(0.00382 -0.101209 0)
(0.00221155 -0.118875 0)
(0.00353521 -0.131536 0)
(0.0396023 -0.576521 0)
(0.0109155 -0.319508 0)
(-0.0185449 -0.140537 0)
(-0.0411074 -0.0240073 0)
(-0.0556941 0.0519756 0)
(-0.0634807 0.101506 0)
(-0.0659306 0.132993 0)
(-0.0646717 0.151047 0)
(-0.0604538 0.158313 0)
(-0.0546083 0.156697 0)
(-0.0470841 0.147081 0)
(-0.0387854 0.130335 0)
(-0.0308133 0.108353 0)
(-0.0239387 0.0835601 0)
(-0.0186626 0.0585501 0)
(-0.014888 0.0351031 0)
(-0.0121334 0.0137033 0)
(-0.00993376 -0.00610985 0)
(-0.00803048 -0.0250672 0)
(-0.0063076 -0.0437647 0)
(-0.00470837 -0.0625861 0)
(-0.00319604 -0.0816745 0)
(-0.00173732 -0.100795 0)
(-0.00135437 -0.119071 0)
(0.00155574 -0.132403 0)
(0.0440424 -0.595115 0)
(0.0205735 -0.355027 0)
(-0.00707918 -0.17484 0)
(-0.0304561 -0.0501122 0)
(-0.0478014 0.0349908 0)
(-0.0592788 0.0922747 0)
(-0.0658025 0.12967 0)
(-0.0684673 0.152287 0)
(-0.0679181 0.162642 0)
(-0.0648314 0.164059 0)
(-0.0597737 0.156566 0)
(-0.0525976 0.140618 0)
(-0.0448753 0.118129 0)
(-0.0375009 0.0917398 0)
(-0.0314738 0.0647338 0)
(-0.0270509 0.0396393 0)
(-0.0237458 0.0172766 0)
(-0.0209279 -0.00296439 0)
(-0.0182291 -0.0220845 0)
(-0.0155032 -0.0408439 0)
(-0.0126862 -0.0596904 0)
(-0.00974609 -0.0788052 0)
(-0.00671097 -0.0980449 0)
(-0.00442268 -0.116659 0)
(-0.000219159 -0.130216 0)
(0.0485312 -0.610063 0)
(0.0290572 -0.386383 0)
(0.00340574 -0.208017 0)
(-0.0203448 -0.0781119 0)
(-0.0398107 0.0140528 0)
(-0.0545131 0.0780733 0)
(-0.0648493 0.121102 0)
(-0.0714668 0.14831 0)
(-0.0749441 0.162983 0)
(-0.0749833 0.167274 0)
(-0.072844 0.163427 0)
(-0.0673705 0.149849 0)
(-0.0601162 0.128227 0)
(-0.0519551 0.101071 0)
(-0.0444876 0.072193 0)
(-0.0387457 0.0451903 0)
(-0.0345451 0.0217049 0)
(-0.0310163 0.00111667 0)
(-0.027536 -0.0179433 0)
(-0.0238661 -0.0364973 0)
(-0.0199058 -0.0550986 0)
(-0.0156252 -0.0739886 0)
(-0.0111203 -0.0931432 0)
(-0.00706227 -0.111967 0)
(-0.00186475 -0.125317 0)
(0.053433 -0.622417 0)
(0.0367408 -0.414363 0)
(0.0129114 -0.239964 0)
(-0.0109519 -0.107353 0)
(-0.0320508 -0.01009 0)
(-0.0495302 0.0594662 0)
(-0.0633538 0.107537 0)
(-0.07378 0.139168 0)
(-0.0810701 0.158207 0)
(-0.0853029 0.166665 0)
(-0.0861456 0.166828 0)
(-0.0836036 0.157224 0)
(-0.0774398 0.138494 0)
(-0.0687042 0.112187 0)
(-0.0591921 0.0820215 0)
(-0.0509801 0.0526504 0)
(-0.0449624 0.0274342 0)
(-0.0404008 0.00625147 0)
(-0.036077 -0.0126776 0)
(-0.031493 -0.0308239 0)
(-0.0264529 -0.0489362 0)
(-0.0208925 -0.0673656 0)
(-0.0149333 -0.0862625 0)
(-0.00921824 -0.105251 0)
(-0.003068 -0.118121 0)
(0.0586854 -0.633091 0)
(0.0439843 -0.439727 0)
(0.0216526 -0.270806 0)
(-0.00218762 -0.1375 0)
(-0.0246187 -0.036847 0)
(-0.0445126 0.0369929 0)
(-0.0614781 0.0893506 0)
(-0.0754979 0.124973 0)
(-0.0867018 0.147863 0)
(-0.0950214 0.160901 0)
(-0.0997494 0.165608 0)
(-0.101212 0.161261 0)
(-0.097411 0.147815 0)
(-0.0892423 0.125036 0)
(-0.0780347 0.0954916 0)
(-0.0661162 0.0638368 0)
(-0.0563905 0.0355523 0)
(-0.0496202 0.0128999 0)
(-0.0441276 -0.00618307 0)
(-0.0385427 -0.0238516 0)
(-0.0324407 -0.0412576 0)
(-0.0255824 -0.058931 0)
(-0.0179839 -0.0772076 0)
(-0.0103427 -0.096195 0)
(-0.00322227 -0.109745 0)
(0.0645805 -0.642735 0)
(0.0512593 -0.463165 0)
(0.0300654 -0.300749 0)
(0.00627026 -0.168386 0)
(-0.0172728 -0.0658447 0)
(-0.0392131 0.0110977 0)
(-0.0589226 0.0669479 0)
(-0.0761927 0.106072 0)
(-0.0909921 0.132516 0)
(-0.10322 0.149413 0)
(-0.112485 0.15858 0)
(-0.118334 0.16091 0)
(-0.119379 0.153705 0)
(-0.113965 0.137596 0)
(-0.10325 0.112424 0)
(-0.0884753 0.0811639 0)
(-0.0729921 0.0490277 0)
(-0.0609036 0.0224095 0)
(-0.0525514 0.00205747 0)
(-0.045468 -0.0153344 0)
(-0.0382133 -0.0319639 0)
(-0.0300181 -0.048692 0)
(-0.0202815 -0.0661193 0)
(-0.0099702 -0.0847979 0)
(-0.00508771 -0.101442 0)
(0.0715423 -0.651831 0)
(0.0591333 -0.48524 0)
(0.0388094 -0.329992 0)
(0.0149967 -0.199902 0)
(-0.00944466 -0.096707 0)
(-0.0330503 -0.0176946 0)
(-0.0550556 0.0408585 0)
(-0.0751308 0.082889 0)
(-0.0931403 0.11236 0)
(-0.108969 0.132599 0)
(-0.122378 0.145634 0)
(-0.132829 0.152508 0)
(-0.139744 0.15398 0)
(-0.140834 0.145409 0)
(-0.134352 0.128823 0)
(-0.121302 0.103428 0)
(-0.102638 0.0720994 0)
(-0.0822797 0.0400458 0)
(-0.0659911 0.0139166 0)
(-0.0545326 -0.00544454 0)
(-0.0447452 -0.0214081 0)
(-0.0343268 -0.0365747 0)
(-0.0206144 -0.0517772 0)
(-0.00132214 -0.0671745 0)
(0.0158641 -0.0851845 0)
(0.0799958 -0.660638 0)
(0.0682147 -0.506466 0)
(0.0485048 -0.358792 0)
(0.0246819 -0.231852 0)
(-0.000417581 -0.129036 0)
(-0.0252972 -0.0487864 0)
(-0.0490888 0.0117785 0)
(-0.0713612 0.0561283 0)
(-0.0919658 0.0880519 0)
(-0.110848 0.111037 0)
(-0.127955 0.127145 0)
(-0.142882 0.137723 0)
(-0.155028 0.143667 0)
(-0.163761 0.145128 0)
(-0.166164 0.137499 0)
(-0.160465 0.12263 0)
(-0.147041 0.0997768 0)
(-0.126297 0.0712115 0)
(-0.10147 0.0411072 0)
(-0.0784429 0.0146682 0)
(-0.0610668 -0.00495067 0)
(-0.0459439 -0.0183526 0)
(-0.0313631 -0.0265455 0)
(-0.0163087 -0.0272679 0)
(-0.00122536 -0.0157371 0)
(0.0903643 -0.669183 0)
(0.0791294 -0.526921 0)
(0.0599321 -0.3873 0)
(0.0362303 -0.264248 0)
(0.0106513 -0.162463 0)
(-0.0151474 -0.0815903 0)
(-0.0401932 -0.0195169 0)
(-0.0639931 0.0266825 0)
(-0.0863052 0.0604214 0)
(-0.107477 0.0853323 0)
(-0.12762 0.103784 0)
(-0.146021 0.117038 0)
(-0.162651 0.126144 0)
(-0.177211 0.13155 0)
(-0.188286 0.132921 0)
(-0.194362 0.127949 0)
(-0.193242 0.11638 0)
(-0.184613 0.0987835 0)
(-0.168072 0.0760716 0)
(-0.14681 0.0524227 0)
(-0.125384 0.0316395 0)
(-0.108039 0.0136691 0)
(-0.0996775 -0.00456031 0)
(-0.104014 -0.0279488 0)
(-0.127544 -0.0657695 0)
(0.103109 -0.677365 0)
(0.0925213 -0.546655 0)
(0.0739515 -0.415335 0)
(0.0504769 -0.296792 0)
(0.0246393 -0.196628 0)
(-0.00177862 -0.115586 0)
(-0.0277002 -0.0522985 0)
(-0.0525215 -0.00446206 0)
(-0.0758811 0.0308062 0)
(-0.0981354 0.0567999 0)
(-0.119668 0.0766269 0)
(-0.140339 0.0917982 0)
(-0.159779 0.102994 0)
(-0.177929 0.11083 0)
(-0.194688 0.115275 0)
(-0.209309 0.116016 0)
(-0.220614 0.11232 0)
(-0.226718 0.101587 0)
(-0.229703 0.0846202 0)
(-0.228129 0.0606117 0)
(-0.224912 0.0324177 0)
(-0.223135 0.00160546 0)
(-0.224805 -0.0314919 0)
(-0.231323 -0.0680792 0)
(-0.240107 -0.109541 0)
(0.118602 -0.684812 0)
(0.108914 -0.565489 0)
(0.0911964 -0.442718 0)
(0.0681639 -0.329202 0)
(0.0423398 -0.231195 0)
(0.0155837 -0.150383 0)
(-0.0109163 -0.0861143 0)
(-0.0364126 -0.0366439 0)
(-0.0604818 0.000400126 0)
(-0.0830201 0.0277518 0)
(-0.104468 0.0483607 0)
(-0.125284 0.0643458 0)
(-0.145437 0.0767723 0)
(-0.164862 0.0858752 0)
(-0.183467 0.0918071 0)
(-0.201321 0.0944808 0)
(-0.218206 0.0932814 0)
(-0.233369 0.0872969 0)
(-0.245756 0.0758281 0)
(-0.254776 0.0583311 0)
(-0.259924 0.0348197 0)
(-0.262267 0.00618123 0)
(-0.262982 -0.0263114 0)
(-0.257827 -0.0603144 0)
(-0.248223 -0.0921148 0)
(0.137081 -0.690966 0)
(0.128723 -0.582978 0)
(0.112217 -0.469088 0)
(0.0899838 -0.36113 0)
(0.0645119 -0.265794 0)
(0.0377401 -0.185596 0)
(0.0109907 -0.120568 0)
(-0.0148619 -0.0694964 0)
(-0.0392675 -0.0304398 0)
(-0.0620037 -0.00104656 0)
(-0.0831981 0.0210399 0)
(-0.103106 0.0379759 0)
(-0.122179 0.0510865 0)
(-0.140648 0.0609117 0)
(-0.158433 0.067593 0)
(-0.175479 0.0710462 0)
(-0.191683 0.0711416 0)
(-0.206627 0.0673684 0)
(-0.219739 0.0592645 0)
(-0.230324 0.0464975 0)
(-0.237479 0.0292029 0)
(-0.240281 0.00800763 0)
(-0.237825 -0.015951 0)
(-0.229046 -0.0407632 0)
(-0.213245 -0.0631561 0)
(0.158616 -0.695118 0)
(0.152168 -0.598479 0)
(0.137412 -0.493869 0)
(0.116478 -0.392055 0)
(0.0917943 -0.299949 0)
(0.0653879 -0.22077 0)
(0.038728 -0.155241 0)
(0.0128159 -0.102647 0)
(-0.0116947 -0.0615079 0)
(-0.0344659 -0.0298578 0)
(-0.0554688 -0.0056168 0)
(-0.0748841 0.0130338 0)
(-0.0929895 0.0273691 0)
(-0.109993 0.03825 0)
(-0.125939 0.0460322 0)
(-0.140716 0.0508055 0)
(-0.154232 0.0524523 0)
(-0.166299 0.0507258 0)
(-0.176546 0.0453721 0)
(-0.184378 0.0362441 0)
(-0.1891 0.0238002 0)
(-0.189944 0.00889224 0)
(-0.186298 -0.00753578 0)
(-0.177727 -0.0243588 0)
(-0.164414 -0.0400872 0)
(0.183065 -0.696432 0)
(0.179212 -0.611152 0)
(0.166903 -0.516267 0)
(0.147929 -0.421274 0)
(0.124609 -0.333063 0)
(0.0990396 -0.255414 0)
(0.072832 -0.189707 0)
(0.0471264 -0.135786 0)
(0.0226795 -0.0925941 0)
(-7.81408e-05 -0.0585931 0)
(-0.021001 -0.0320445 0)
(-0.0401599 -0.0113028 0)
(-0.0577264 0.0049333 0)
(-0.0738522 0.0175651 0)
(-0.0885777 0.0270877 0)
(-0.101827 0.0336615 0)
(-0.1134 0.0372689 0)
(-0.123106 0.0379167 0)
(-0.130848 0.0353934 0)
(-0.136381 0.0296305 0)
(-0.139269 0.0211748 0)
(-0.139184 0.010809 0)
(-0.135881 -0.00070718 0)
(-0.129345 -0.0126445 0)
(-0.119883 -0.0242676 0)
(0.21004 -0.69401 0)
(0.209509 -0.620004 0)
(0.200465 -0.535281 0)
(0.184275 -0.447868 0)
(0.163064 -0.36436 0)
(0.138948 -0.288924 0)
(0.113659 -0.223536 0)
(0.08848 -0.168611 0)
(0.0642919 -0.123577 0)
(0.0416229 -0.0872875 0)
(0.0207162 -0.0583363 0)
(0.00160606 -0.0353068 0)
(-0.0158016 -0.0169516 0)
(-0.0316219 -0.00229808 0)
(-0.0458828 0.00929339 0)
(-0.058499 0.0181146 0)
(-0.0693352 0.0241433 0)
(-0.0782279 0.0272842 0)
(-0.0851168 0.0274768 0)
(-0.0899543 0.0247258 0)
(-0.0925452 0.0194804 0)
(-0.0927417 0.012498 0)
(-0.0905016 0.00441056 0)
(-0.0858949 -0.00426477 0)
(-0.0791576 -0.0130435 0)
(0.238903 -0.686998 0)
(0.242378 -0.623978 0)
(0.237459 -0.549738 0)
(0.225009 -0.470689 0)
(0.206839 -0.392828 0)
(0.184987 -0.320485 0)
(0.161266 -0.25613 0)
(0.137094 -0.200732 0)
(0.113488 -0.154223 0)
(0.0911012 -0.115888 0)
(0.0702826 -0.084655 0)
(0.0511483 -0.0593375 0)
(0.0336673 -0.0387972 0)
(0.0177633 -0.0220428 0)
(0.00343954 -0.00831263 0)
(-0.00918357 0.00278807 0)
(-0.0200528 0.0112749 0)
(-0.0291117 0.0170069 0)
(-0.0363383 0.0197861 0)
(-0.04165 0.0196744 0)