/*--------------------------------*- C++ -*----------------------------------*\
| =========                 |                                                 |
| \\      /  F ield         | OpenFOAM: The Open Source CFD Toolbox           |
|  \\    /   O peration     | Version:  v2012                                 |
|   \\  /    A nd           | Website:  www.openfoam.com                      |
|    \\/     M anipulation  |                                                 |
\*---------------------------------------------------------------------------*/
FoamFile
{
    version     2.0;
    format      ascii;
    class       volVectorField;
    location    "623";
    object      C;
}
// * * * * * * * * * * * * * * * * * * * * * * * * * * * * * * * * * * * * * //

dimensions      [0 1 0 0 0 0 0];


internalField   nonuniform List<vector> 
6108
(
(0.01 1.0125 -0.005)
(0.01 1.0375 -0.005)
(0.01 1.0625 -0.005)
(0.01 1.0875 -0.005)
(0.01 1.1125 -0.005)
(0.01 1.1375 -0.005)
(0.01 1.1625 -0.005)
(0.01 1.1875 -0.005)
(0.01 1.2125 -0.005)
(0.01 1.2375 -0.005)
(0.01 1.2625 -0.005)
(0.01 1.2875 -0.005)
(0.01 1.3125 -0.005)
(0.01 1.3375 -0.005)
(0.01 1.3625 -0.005)
(0.01 1.3875 -0.005)
(0.01 1.4125 -0.005)
(0.01 1.4375 -0.005)
(0.01 1.4625 -0.005)
(0.01 1.4875 -0.005)
(0.03 1.0125 -0.005)
(0.03 1.0375 -0.005)
(0.03 1.0625 -0.005)
(0.03 1.0875 -0.005)
(0.03 1.1125 -0.005)
(0.03 1.1375 -0.005)
(0.03 1.1625 -0.005)
(0.03 1.1875 -0.005)
(0.03 1.2125 -0.005)
(0.03 1.2375 -0.005)
(0.03 1.2625 -0.005)
(0.03 1.2875 -0.005)
(0.03 1.3125 -0.005)
(0.03 1.3375 -0.005)
(0.03 1.3625 -0.005)
(0.03 1.3875 -0.005)
(0.03 1.4125 -0.005)
(0.03 1.4375 -0.005)
(0.03 1.4625 -0.005)
(0.03 1.4875 -0.005)
(0.05 1.0125 -0.005)
(0.05 1.0375 -0.005)
(0.05 1.0625 -0.005)
(0.05 1.0875 -0.005)
(0.05 1.1125 -0.005)
(0.05 1.1375 -0.005)
(0.05 1.1625 -0.005)
(0.05 1.1875 -0.005)
(0.05 1.2125 -0.005)
(0.05 1.2375 -0.005)
(0.05 1.2625 -0.005)
(0.05 1.2875 -0.005)
(0.05 1.3125 -0.005)
(0.05 1.3375 -0.005)
(0.05 1.3625 -0.005)
(0.05 1.3875 -0.005)
(0.05 1.4125 -0.005)
(0.05 1.4375 -0.005)
(0.05 1.4625 -0.005)
(0.05 1.4875 -0.005)
(0.07 1.0125 -0.005)
(0.07 1.0375 -0.005)
(0.07 1.0625 -0.005)
(0.07 1.0875 -0.005)
(0.07 1.1125 -0.005)
(0.07 1.1375 -0.005)
(0.07 1.1625 -0.005)
(0.07 1.1875 -0.005)
(0.07 1.2125 -0.005)
(0.07 1.2375 -0.005)
(0.07 1.2625 -0.005)
(0.07 1.2875 -0.005)
(0.07 1.3125 -0.005)
(0.07 1.3375 -0.005)
(0.07 1.3625 -0.005)
(0.07 1.3875 -0.005)
(0.07 1.4125 -0.005)
(0.07 1.4375 -0.005)
(0.07 1.4625 -0.005)
(0.07 1.4875 -0.005)
(0.09 1.0125 -0.005)
(0.09 1.0375 -0.005)
(0.09 1.0625 -0.005)
(0.09 1.0875 -0.005)
(0.09 1.1125 -0.005)
(0.09 1.1375 -0.005)
(0.09 1.1625 -0.005)
(0.09 1.1875 -0.005)
(0.09 1.2125 -0.005)
(0.09 1.2375 -0.005)
(0.09 1.2625 -0.005)
(0.09 1.2875 -0.005)
(0.09 1.3125 -0.005)
(0.09 1.3375 -0.005)
(0.09 1.3625 -0.005)
(0.09 1.3875 -0.005)
(0.09 1.4125 -0.005)
(0.09 1.4375 -0.005)
(0.09 1.4625 -0.005)
(0.09 1.4875 -0.005)
(0.11 1.0125 -0.005)
(0.11 1.0375 -0.005)
(0.11 1.0625 -0.005)
(0.11 1.0875 -0.005)
(0.11 1.1125 -0.005)
(0.11 1.1375 -0.005)
(0.11 1.1625 -0.005)
(0.11 1.1875 -0.005)
(0.11 1.2125 -0.005)
(0.11 1.2375 -0.005)
(0.11 1.2625 -0.005)
(0.11 1.2875 -0.005)
(0.11 1.3125 -0.005)
(0.11 1.3375 -0.005)
(0.11 1.3625 -0.005)
(0.11 1.3875 -0.005)
(0.11 1.4125 -0.005)
(0.11 1.4375 -0.005)
(0.11 1.4625 -0.005)
(0.11 1.4875 -0.005)
(0.13 1.0125 -0.005)
(0.13 1.0375 -0.005)
(0.13 1.0625 -0.005)
(0.13 1.0875 -0.005)
(0.13 1.1125 -0.005)
(0.13 1.1375 -0.005)
(0.13 1.1625 -0.005)
(0.13 1.1875 -0.005)
(0.13 1.2125 -0.005)
(0.13 1.2375 -0.005)
(0.13 1.2625 -0.005)
(0.13 1.2875 -0.005)
(0.13 1.3125 -0.005)
(0.13 1.3375 -0.005)
(0.13 1.3625 -0.005)
(0.13 1.3875 -0.005)
(0.13 1.4125 -0.005)
(0.13 1.4375 -0.005)
(0.13 1.4625 -0.005)
(0.13 1.4875 -0.005)
(0.15 1.0125 -0.005)
(0.15 1.0375 -0.005)
(0.15 1.0625 -0.005)
(0.15 1.0875 -0.005)
(0.15 1.1125 -0.005)
(0.15 1.1375 -0.005)
(0.15 1.1625 -0.005)
(0.15 1.1875 -0.005)
(0.15 1.2125 -0.005)
(0.15 1.2375 -0.005)
(0.15 1.2625 -0.005)
(0.15 1.2875 -0.005)
(0.15 1.3125 -0.005)
(0.15 1.3375 -0.005)
(0.15 1.3625 -0.005)
(0.15 1.3875 -0.005)
(0.15 1.4125 -0.005)
(0.15 1.4375 -0.005)
(0.15 1.4625 -0.005)
(0.15 1.4875 -0.005)
(0.17 1.0125 -0.005)
(0.17 1.0375 -0.005)
(0.17 1.0625 -0.005)
(0.17 1.0875 -0.005)
(0.17 1.1125 -0.005)
(0.17 1.1375 -0.005)
(0.17 1.1625 -0.005)
(0.17 1.1875 -0.005)
(0.17 1.2125 -0.005)
(0.17 1.2375 -0.005)
(0.17 1.2625 -0.005)
(0.17 1.2875 -0.005)
(0.17 1.3125 -0.005)
(0.17 1.3375 -0.005)
(0.17 1.3625 -0.005)
(0.17 1.3875 -0.005)
(0.17 1.4125 -0.005)
(0.17 1.4375 -0.005)
(0.17 1.4625 -0.005)
(0.17 1.4875 -0.005)
(0.19 1.0125 -0.005)
(0.19 1.0375 -0.005)
(0.19 1.0625 -0.005)
(0.19 1.0875 -0.005)
(0.19 1.1125 -0.005)
(0.19 1.1375 -0.005)
(0.19 1.1625 -0.005)
(0.19 1.1875 -0.005)
(0.19 1.2125 -0.005)
(0.19 1.2375 -0.005)
(0.19 1.2625 -0.005)
(0.19 1.2875 -0.005)
(0.19 1.3125 -0.005)
(0.19 1.3375 -0.005)
(0.19 1.3625 -0.005)
(0.19 1.3875 -0.005)
(0.19 1.4125 -0.005)
(0.19 1.4375 -0.005)
(0.19 1.4625 -0.005)
(0.19 1.4875 -0.005)
(0.01 0.9125 -0.005)
(0.01 0.9375 -0.005)
(0.01 0.9625 -0.005)
(0.01 0.9875 -0.005)
(0.03 0.9125 -0.005)
(0.03 0.9375 -0.005)
(0.03 0.9625 -0.005)
(0.03 0.9875 -0.005)
(0.05 0.9125 -0.005)
(0.05 0.9375 -0.005)
(0.05 0.9625 -0.005)
(0.05 0.9875 -0.005)
(0.07 0.9125 -0.005)
(0.07 0.9375 -0.005)
(0.07 0.9625 -0.005)
(0.07 0.9875 -0.005)
(0.09 0.9125 -0.005)
(0.09 0.9375 -0.005)
(0.09 0.9625 -0.005)
(0.09 0.9875 -0.005)
(0.11 0.9125 -0.005)
(0.11 0.9375 -0.005)
(0.11 0.9625 -0.005)
(0.11 0.9875 -0.005)
(0.13 0.9125 -0.005)
(0.13 0.9375 -0.005)
(0.13 0.9625 -0.005)
(0.13 0.9875 -0.005)
(0.15 0.9125 -0.005)
(0.15 0.9375 -0.005)
(0.15 0.9625 -0.005)
(0.15 0.9875 -0.005)
(0.17 0.9125 -0.005)
(0.17 0.9375 -0.005)
(0.17 0.9625 -0.005)
(0.17 0.9875 -0.005)
(0.19 0.9125 -0.005)
(0.19 0.9375 -0.005)
(0.19 0.9625 -0.005)
(0.19 0.9875 -0.005)
(0.01 0.0125 -0.005)
(0.01 0.0375 -0.005)
(0.01 0.0625 -0.005)
(0.01 0.0875 -0.005)
(0.01 0.1125 -0.005)
(0.01 0.1375 -0.005)
(0.01 0.1625 -0.005)
(0.01 0.1875 -0.005)
(0.01 0.2125 -0.005)
(0.01 0.2375 -0.005)
(0.01 0.2625 -0.005)
(0.01 0.2875 -0.005)
(0.01 0.3125 -0.005)
(0.01 0.3375 -0.005)
(0.01 0.3625 -0.005)
(0.01 0.3875 -0.005)
(0.01 0.4125 -0.005)
(0.01 0.4375 -0.005)
(0.01 0.4625 -0.005)
(0.01 0.4875 -0.005)
(0.01 0.5125 -0.005)
(0.01 0.5375 -0.005)
(0.01 0.5625 -0.005)
(0.01 0.5875 -0.005)
(0.01 0.6125 -0.005)
(0.01 0.6375 -0.005)
(0.01 0.6625 -0.005)
(0.01 0.6875 -0.005)
(0.01 0.7125 -0.005)
(0.01 0.7375 -0.005)
(0.01 0.7625 -0.005)
(0.01 0.7875 -0.005)
(0.01 0.8125 -0.005)
(0.01 0.8375 -0.005)
(0.01 0.8625 -0.005)
(0.01 0.8875 -0.005)
(0.03 0.0125 -0.005)
(0.03 0.0375 -0.005)
(0.03 0.0625 -0.005)
(0.03 0.0875 -0.005)
(0.03 0.1125 -0.005)
(0.03 0.1375 -0.005)
(0.03 0.1625 -0.005)
(0.03 0.1875 -0.005)
(0.03 0.2125 -0.005)
(0.03 0.2375 -0.005)
(0.03 0.2625 -0.005)
(0.03 0.2875 -0.005)
(0.03 0.3125 -0.005)
(0.03 0.3375 -0.005)
(0.03 0.3625 -0.005)
(0.03 0.3875 -0.005)
(0.03 0.4125 -0.005)
(0.03 0.4375 -0.005)
(0.03 0.4625 -0.005)
(0.03 0.4875 -0.005)
(0.03 0.5125 -0.005)
(0.03 0.5375 -0.005)
(0.03 0.5625 -0.005)
(0.03 0.5875 -0.005)
(0.03 0.6125 -0.005)
(0.03 0.6375 -0.005)
(0.03 0.6625 -0.005)
(0.03 0.6875 -0.005)
(0.03 0.7125 -0.005)
(0.03 0.7375 -0.005)
(0.03 0.7625 -0.005)
(0.03 0.7875 -0.005)
(0.03 0.8125 -0.005)
(0.03 0.8375 -0.005)
(0.03 0.8625 -0.005)
(0.03 0.8875 -0.005)
(0.05 0.0125 -0.005)
(0.05 0.0375 -0.005)
(0.05 0.0625 -0.005)
(0.05 0.0875 -0.005)
(0.05 0.1125 -0.005)
(0.05 0.1375 -0.005)
(0.05 0.1625 -0.005)
(0.05 0.1875 -0.005)
(0.05 0.2125 -0.005)
(0.05 0.2375 -0.005)
(0.05 0.2625 -0.005)
(0.05 0.2875 -0.005)
(0.05 0.3125 -0.005)
(0.05 0.3375 -0.005)
(0.05 0.3625 -0.005)
(0.05 0.3875 -0.005)
(0.05 0.4125 -0.005)
(0.05 0.4375 -0.005)
(0.05 0.4625 -0.005)
(0.05 0.4875 -0.005)
(0.05 0.5125 -0.005)
(0.05 0.5375 -0.005)
(0.05 0.5625 -0.005)
(0.05 0.5875 -0.005)
(0.05 0.6125 -0.005)
(0.05 0.6375 -0.005)
(0.05 0.6625 -0.005)
(0.05 0.6875 -0.005)
(0.05 0.7125 -0.005)
(0.05 0.7375 -0.005)
(0.05 0.7625 -0.005)
(0.05 0.7875 -0.005)
(0.05 0.8125 -0.005)
(0.05 0.8375 -0.005)
(0.05 0.8625 -0.005)
(0.05 0.8875 -0.005)
(0.07 0.0125 -0.005)
(0.07 0.0375 -0.005)
(0.07 0.0625 -0.005)
(0.07 0.0875 -0.005)
(0.07 0.1125 -0.005)
(0.07 0.1375 -0.005)
(0.07 0.1625 -0.005)
(0.07 0.1875 -0.005)
(0.07 0.2125 -0.005)
(0.07 0.2375 -0.005)
(0.07 0.2625 -0.005)
(0.07 0.2875 -0.005)
(0.07 0.3125 -0.005)
(0.07 0.3375 -0.005)
(0.07 0.3625 -0.005)
(0.07 0.3875 -0.005)
(0.07 0.4125 -0.005)
(0.07 0.4375 -0.005)
(0.07 0.4625 -0.005)
(0.07 0.4875 -0.005)
(0.07 0.5125 -0.005)
(0.07 0.5375 -0.005)
(0.07 0.5625 -0.005)
(0.07 0.5875 -0.005)
(0.07 0.6125 -0.005)
(0.07 0.6375 -0.005)
(0.07 0.6625 -0.005)
(0.07 0.6875 -0.005)
(0.07 0.7125 -0.005)
(0.07 0.7375 -0.005)
(0.07 0.7625 -0.005)
(0.07 0.7875 -0.005)
(0.07 0.8125 -0.005)
(0.07 0.8375 -0.005)
(0.07 0.8625 -0.005)
(0.07 0.8875 -0.005)
(0.09 0.0125 -0.005)
(0.09 0.0375 -0.005)
(0.09 0.0625 -0.005)
(0.09 0.0875 -0.005)
(0.09 0.1125 -0.005)
(0.09 0.1375 -0.005)
(0.09 0.1625 -0.005)
(0.09 0.1875 -0.005)
(0.09 0.2125 -0.005)
(0.09 0.2375 -0.005)
(0.09 0.2625 -0.005)
(0.09 0.2875 -0.005)
(0.09 0.3125 -0.005)
(0.09 0.3375 -0.005)
(0.09 0.3625 -0.005)
(0.09 0.3875 -0.005)
(0.09 0.4125 -0.005)
(0.09 0.4375 -0.005)
(0.09 0.4625 -0.005)
(0.09 0.4875 -0.005)
(0.09 0.5125 -0.005)
(0.09 0.5375 -0.005)
(0.09 0.5625 -0.005)
(0.09 0.5875 -0.005)
(0.09 0.6125 -0.005)
(0.09 0.6375 -0.005)
(0.09 0.6625 -0.005)
(0.09 0.6875 -0.005)
(0.09 0.7125 -0.005)
(0.09 0.7375 -0.005)
(0.09 0.7625 -0.005)
(0.09 0.7875 -0.005)
(0.09 0.8125 -0.005)
(0.09 0.8375 -0.005)
(0.09 0.8625 -0.005)
(0.09 0.8875 -0.005)
(0.11 0.0125 -0.005)
(0.11 0.0375 -0.005)
(0.11 0.0625 -0.005)
(0.11 0.0875 -0.005)
(0.11 0.1125 -0.005)
(0.11 0.1375 -0.005)
(0.11 0.1625 -0.005)
(0.11 0.1875 -0.005)
(0.11 0.2125 -0.005)
(0.11 0.2375 -0.005)
(0.11 0.2625 -0.005)
(0.11 0.2875 -0.005)
(0.11 0.3125 -0.005)
(0.11 0.3375 -0.005)
(0.11 0.3625 -0.005)
(0.11 0.3875 -0.005)
(0.11 0.4125 -0.005)
(0.11 0.4375 -0.005)
(0.11 0.4625 -0.005)
(0.11 0.4875 -0.005)
(0.11 0.5125 -0.005)
(0.11 0.5375 -0.005)
(0.11 0.5625 -0.005)
(0.11 0.5875 -0.005)
(0.11 0.6125 -0.005)
(0.11 0.6375 -0.005)
(0.11 0.6625 -0.005)
(0.11 0.6875 -0.005)
(0.11 0.7125 -0.005)
(0.11 0.7375 -0.005)
(0.11 0.7625 -0.005)
(0.11 0.7875 -0.005)
(0.11 0.8125 -0.005)
(0.11 0.8375 -0.005)
(0.11 0.8625 -0.005)
(0.11 0.8875 -0.005)
(0.13 0.0125 -0.005)
(0.13 0.0375 -0.005)
(0.13 0.0625 -0.005)
(0.13 0.0875 -0.005)
(0.13 0.1125 -0.005)
(0.13 0.1375 -0.005)
(0.13 0.1625 -0.005)
(0.13 0.1875 -0.005)
(0.13 0.2125 -0.005)
(0.13 0.2375 -0.005)
(0.13 0.2625 -0.005)
(0.13 0.2875 -0.005)
(0.13 0.3125 -0.005)
(0.13 0.3375 -0.005)
(0.13 0.3625 -0.005)
(0.13 0.3875 -0.005)
(0.13 0.4125 -0.005)
(0.13 0.4375 -0.005)
(0.13 0.4625 -0.005)
(0.13 0.4875 -0.005)
(0.13 0.5125 -0.005)
(0.13 0.5375 -0.005)
(0.13 0.5625 -0.005)
(0.13 0.5875 -0.005)
(0.13 0.6125 -0.005)
(0.13 0.6375 -0.005)
(0.13 0.6625 -0.005)
(0.13 0.6875 -0.005)
(0.13 0.7125 -0.005)
(0.13 0.7375 -0.005)
(0.13 0.7625 -0.005)
(0.13 0.7875 -0.005)
(0.13 0.8125 -0.005)
(0.13 0.8375 -0.005)
(0.13 0.8625 -0.005)
(0.13 0.8875 -0.005)
(0.15 0.0125 -0.005)
(0.15 0.0375 -0.005)
(0.15 0.0625 -0.005)
(0.15 0.0875 -0.005)
(0.15 0.1125 -0.005)
(0.15 0.1375 -0.005)
(0.15 0.1625 -0.005)
(0.15 0.1875 -0.005)
(0.15 0.2125 -0.005)
(0.15 0.2375 -0.005)
(0.15 0.2625 -0.005)
(0.15 0.2875 -0.005)
(0.15 0.3125 -0.005)
(0.15 0.3375 -0.005)
(0.15 0.3625 -0.005)
(0.15 0.3875 -0.005)
(0.15 0.4125 -0.005)
(0.15 0.4375 -0.005)
(0.15 0.4625 -0.005)
(0.15 0.4875 -0.005)
(0.15 0.5125 -0.005)
(0.15 0.5375 -0.005)
(0.15 0.5625 -0.005)
(0.15 0.5875 -0.005)
(0.15 0.6125 -0.005)
(0.15 0.6375 -0.005)
(0.15 0.6625 -0.005)
(0.15 0.6875 -0.005)
(0.15 0.7125 -0.005)
(0.15 0.7375 -0.005)
(0.15 0.7625 -0.005)
(0.15 0.7875 -0.005)
(0.15 0.8125 -0.005)
(0.15 0.8375 -0.005)
(0.15 0.8625 -0.005)
(0.15 0.8875 -0.005)
(0.17 0.0125 -0.005)
(0.17 0.0375 -0.005)
(0.17 0.0625 -0.005)
(0.17 0.0875 -0.005)
(0.17 0.1125 -0.005)
(0.17 0.1375 -0.005)
(0.17 0.1625 -0.005)
(0.17 0.1875 -0.005)
(0.17 0.2125 -0.005)
(0.17 0.2375 -0.005)
(0.17 0.2625 -0.005)
(0.17 0.2875 -0.005)
(0.17 0.3125 -0.005)
(0.17 0.3375 -0.005)
(0.17 0.3625 -0.005)
(0.17 0.3875 -0.005)
(0.17 0.4125 -0.005)
(0.17 0.4375 -0.005)
(0.17 0.4625 -0.005)
(0.17 0.4875 -0.005)
(0.17 0.5125 -0.005)
(0.17 0.5375 -0.005)
(0.17 0.5625 -0.005)
(0.17 0.5875 -0.005)
(0.17 0.6125 -0.005)
(0.17 0.6375 -0.005)
(0.17 0.6625 -0.005)
(0.17 0.6875 -0.005)
(0.17 0.7125 -0.005)
(0.17 0.7375 -0.005)
(0.17 0.7625 -0.005)
(0.17 0.7875 -0.005)
(0.17 0.8125 -0.005)
(0.17 0.8375 -0.005)
(0.17 0.8625 -0.005)
(0.17 0.8875 -0.005)
(0.19 0.0125 -0.005)
(0.19 0.0375 -0.005)
(0.19 0.0625 -0.005)
(0.19 0.0875 -0.005)
(0.19 0.1125 -0.005)
(0.19 0.1375 -0.005)
(0.19 0.1625 -0.005)
(0.19 0.1875 -0.005)
(0.19 0.2125 -0.005)
(0.19 0.2375 -0.005)
(0.19 0.2625 -0.005)
(0.19 0.2875 -0.005)
(0.19 0.3125 -0.005)
(0.19 0.3375 -0.005)
(0.19 0.3625 -0.005)
(0.19 0.3875 -0.005)
(0.19 0.4125 -0.005)
(0.19 0.4375 -0.005)
(0.19 0.4625 -0.005)
(0.19 0.4875 -0.005)
(0.19 0.5125 -0.005)
(0.19 0.5375 -0.005)
(0.19 0.5625 -0.005)
(0.19 0.5875 -0.005)
(0.19 0.6125 -0.005)
(0.19 0.6375 -0.005)
(0.19 0.6625 -0.005)
(0.19 0.6875 -0.005)
(0.19 0.7125 -0.005)
(0.19 0.7375 -0.005)
(0.19 0.7625 -0.005)
(0.19 0.7875 -0.005)
(0.19 0.8125 -0.005)
(0.19 0.8375 -0.005)
(0.19 0.8625 -0.005)
(0.19 0.8875 -0.005)
(0.210625 0.9125 -0.005)
(0.210625 0.9375 -0.005)
(0.210625 0.9625 -0.005)
(0.210625 0.9875 -0.005)
(0.231875 0.9125 -0.005)
(0.231875 0.9375 -0.005)
(0.231875 0.9625 -0.005)
(0.231875 0.9875 -0.005)
(0.253125 0.9125 -0.005)
(0.253125 0.9375 -0.005)
(0.253125 0.9625 -0.005)
(0.253125 0.9875 -0.005)
(0.274375 0.9125 -0.005)
(0.274375 0.9375 -0.005)
(0.274375 0.9625 -0.005)
(0.274375 0.9875 -0.005)
(0.295625 0.9125 -0.005)
(0.295625 0.9375 -0.005)
(0.295625 0.9625 -0.005)
(0.295625 0.9875 -0.005)
(0.316875 0.9125 -0.005)
(0.316875 0.9375 -0.005)
(0.316875 0.9625 -0.005)
(0.316875 0.9875 -0.005)
(0.338125 0.9125 -0.005)
(0.338125 0.9375 -0.005)
(0.338125 0.9625 -0.005)
(0.338125 0.9875 -0.005)
(0.359375 0.9125 -0.005)
(0.359375 0.9375 -0.005)
(0.359375 0.9625 -0.005)
(0.359375 0.9875 -0.005)
(0.380625 0.9125 -0.005)
(0.380625 0.9375 -0.005)
(0.380625 0.9625 -0.005)
(0.380625 0.9875 -0.005)
(0.401875 0.9125 -0.005)
(0.401875 0.9375 -0.005)
(0.401875 0.9625 -0.005)
(0.401875 0.9875 -0.005)
(0.423125 0.9125 -0.005)
(0.423125 0.9375 -0.005)
(0.423125 0.9625 -0.005)
(0.423125 0.9875 -0.005)
(0.444375 0.9125 -0.005)
(0.444375 0.9375 -0.005)
(0.444375 0.9625 -0.005)
(0.444375 0.9875 -0.005)
(0.465625 0.9125 -0.005)
(0.465625 0.9375 -0.005)
(0.465625 0.9625 -0.005)
(0.465625 0.9875 -0.005)
(0.486875 0.9125 -0.005)
(0.486875 0.9375 -0.005)
(0.486875 0.9625 -0.005)
(0.486875 0.9875 -0.005)
(0.508125 0.9125 -0.005)
(0.508125 0.9375 -0.005)
(0.508125 0.9625 -0.005)
(0.508125 0.9875 -0.005)
(0.529375 0.9125 -0.005)
(0.529375 0.9375 -0.005)
(0.529375 0.9625 -0.005)
(0.529375 0.9875 -0.005)
(0.550625 0.9125 -0.005)
(0.550625 0.9375 -0.005)
(0.550625 0.9625 -0.005)
(0.550625 0.9875 -0.005)
(0.571875 0.9125 -0.005)
(0.571875 0.9375 -0.005)
(0.571875 0.9625 -0.005)
(0.571875 0.9875 -0.005)
(0.593125 0.9125 -0.005)
(0.593125 0.9375 -0.005)
(0.593125 0.9625 -0.005)
(0.593125 0.9875 -0.005)
(0.614375 0.9125 -0.005)
(0.614375 0.9375 -0.005)
(0.614375 0.9625 -0.005)
(0.614375 0.9875 -0.005)
(0.635625 0.9125 -0.005)
(0.635625 0.9375 -0.005)
(0.635625 0.9625 -0.005)
(0.635625 0.9875 -0.005)
(0.656875 0.9125 -0.005)
(0.656875 0.9375 -0.005)
(0.656875 0.9625 -0.005)
(0.656875 0.9875 -0.005)
(0.678125 0.9125 -0.005)
(0.678125 0.9375 -0.005)
(0.678125 0.9625 -0.005)
(0.678125 0.9875 -0.005)
(0.699375 0.9125 -0.005)
(0.699375 0.9375 -0.005)
(0.699375 0.9625 -0.005)
(0.699375 0.9875 -0.005)
(0.720625 0.9125 -0.005)
(0.720625 0.9375 -0.005)
(0.720625 0.9625 -0.005)
(0.720625 0.9875 -0.005)
(0.741875 0.9125 -0.005)
(0.741875 0.9375 -0.005)
(0.741875 0.9625 -0.005)
(0.741875 0.9875 -0.005)
(0.763125 0.9125 -0.005)
(0.763125 0.9375 -0.005)
(0.763125 0.9625 -0.005)
(0.763125 0.9875 -0.005)
(0.784375 0.9125 -0.005)
(0.784375 0.9375 -0.005)
(0.784375 0.9625 -0.005)
(0.784375 0.9875 -0.005)
(0.805625 0.9125 -0.005)
(0.805625 0.9375 -0.005)
(0.805625 0.9625 -0.005)
(0.805625 0.9875 -0.005)
(0.826875 0.9125 -0.005)
(0.826875 0.9375 -0.005)
(0.826875 0.9625 -0.005)
(0.826875 0.9875 -0.005)
(0.848125 0.9125 -0.005)
(0.848125 0.9375 -0.005)
(0.848125 0.9625 -0.005)
(0.848125 0.9875 -0.005)
(0.869375 0.9125 -0.005)
(0.869375 0.9375 -0.005)
(0.869375 0.9625 -0.005)
(0.869375 0.9875 -0.005)
(0.890625 0.9125 -0.005)
(0.890625 0.9375 -0.005)
(0.890625 0.9625 -0.005)
(0.890625 0.9875 -0.005)
(0.911875 0.9125 -0.005)
(0.911875 0.9375 -0.005)
(0.911875 0.9625 -0.005)
(0.911875 0.9875 -0.005)
(0.933125 0.9125 -0.005)
(0.933125 0.9375 -0.005)
(0.933125 0.9625 -0.005)
(0.933125 0.9875 -0.005)
(0.954375 0.9125 -0.005)
(0.954375 0.9375 -0.005)
(0.954375 0.9625 -0.005)
(0.954375 0.9875 -0.005)
(0.975625 0.9125 -0.005)
(0.975625 0.9375 -0.005)
(0.975625 0.9625 -0.005)
(0.975625 0.9875 -0.005)
(0.996875 0.9125 -0.005)
(0.996875 0.9375 -0.005)
(0.996875 0.9625 -0.005)
(0.996875 0.9875 -0.005)
(1.01812 0.9125 -0.005)
(1.01812 0.9375 -0.005)
(1.01812 0.9625 -0.005)
(1.01812 0.9875 -0.005)
(1.03937 0.9125 -0.005)
(1.03937 0.9375 -0.005)
(1.03938 0.9625 -0.005)
(1.03938 0.9875 -0.005)
(1.06062 0.9125 -0.005)
(1.06062 0.9375 -0.005)
(1.06063 0.9625 -0.005)
(1.06063 0.9875 -0.005)
(1.08188 0.9125 -0.005)
(1.08187 0.9375 -0.005)
(1.08188 0.9625 -0.005)
(1.08187 0.9875 -0.005)
(1.10312 0.9125 -0.005)
(1.10312 0.9375 -0.005)
(1.10312 0.9625 -0.005)
(1.10312 0.9875 -0.005)
(1.12438 0.9125 -0.005)
(1.12437 0.9375 -0.005)
(1.12437 0.9625 -0.005)
(1.12437 0.9875 -0.005)
(1.14563 0.9125 -0.005)
(1.14562 0.9375 -0.005)
(1.14563 0.9625 -0.005)
(1.14563 0.9875 -0.005)
(1.16687 0.9125 -0.005)
(1.16687 0.9375 -0.005)
(1.16687 0.9625 -0.005)
(1.16688 0.9875 -0.005)
(1.18812 0.9125 -0.005)
(1.18813 0.9375 -0.005)
(1.18812 0.9625 -0.005)
(1.18812 0.9875 -0.005)
(1.20937 0.9125 -0.005)
(1.20937 0.9375 -0.005)
(1.20938 0.9625 -0.005)
(1.20938 0.9875 -0.005)
(1.23062 0.9125 -0.005)
(1.23062 0.9375 -0.005)
(1.23062 0.9625 -0.005)
(1.23063 0.9875 -0.005)
(1.25188 0.9125 -0.005)
(1.25188 0.9375 -0.005)
(1.25187 0.9625 -0.005)
(1.25187 0.9875 -0.005)
(1.27312 0.9125 -0.005)
(1.27313 0.9375 -0.005)
(1.27312 0.9625 -0.005)
(1.27312 0.9875 -0.005)
(1.29438 0.9125 -0.005)
(1.29437 0.9375 -0.005)
(1.29438 0.9625 -0.005)
(1.29438 0.9875 -0.005)
(1.31562 0.9125 -0.005)
(1.31562 0.9375 -0.005)
(1.31563 0.9625 -0.005)
(1.31563 0.9875 -0.005)
(1.33687 0.9125 -0.005)
(1.33688 0.9375 -0.005)
(1.33688 0.9625 -0.005)
(1.33688 0.9875 -0.005)
(1.35813 0.9125 -0.005)
(1.35813 0.9375 -0.005)
(1.35813 0.9625 -0.005)
(1.35812 0.9875 -0.005)
(1.37937 0.9125 -0.005)
(1.37937 0.9375 -0.005)
(1.37938 0.9625 -0.005)
(1.37937 0.9875 -0.005)
(1.40062 0.9125 -0.005)
(1.40062 0.9375 -0.005)
(1.40062 0.9625 -0.005)
(1.40063 0.9875 -0.005)
(1.42188 0.9125 -0.005)
(1.42187 0.9375 -0.005)
(1.42188 0.9625 -0.005)
(1.42187 0.9875 -0.005)
(1.44312 0.9125 -0.005)
(1.44312 0.9375 -0.005)
(1.44312 0.9625 -0.005)
(1.44313 0.9875 -0.005)
(1.46437 0.9125 -0.005)
(1.46437 0.9375 -0.005)
(1.46437 0.9625 -0.005)
(1.46437 0.9875 -0.005)
(0.210625 0.0125 -0.005)
(0.210625 0.0375 -0.005)
(0.210625 0.0625 -0.005)
(0.210625 0.0875 -0.005)
(0.210625 0.1125 -0.005)
(0.210625 0.1375 -0.005)
(0.210625 0.1625 -0.005)
(0.210625 0.1875 -0.005)
(0.210625 0.2125 -0.005)
(0.210625 0.2375 -0.005)
(0.210625 0.2625 -0.005)
(0.210625 0.2875 -0.005)
(0.210625 0.3125 -0.005)
(0.210625 0.3375 -0.005)
(0.210625 0.3625 -0.005)
(0.210625 0.3875 -0.005)
(0.210625 0.4125 -0.005)
(0.210625 0.4375 -0.005)
(0.210625 0.4625 -0.005)
(0.210625 0.4875 -0.005)
(0.210625 0.5125 -0.005)
(0.210625 0.5375 -0.005)
(0.210625 0.5625 -0.005)
(0.210625 0.5875 -0.005)
(0.210625 0.6125 -0.005)
(0.210625 0.6375 -0.005)
(0.210625 0.6625 -0.005)
(0.210625 0.6875 -0.005)
(0.210625 0.7125 -0.005)
(0.210625 0.7375 -0.005)
(0.210625 0.7625 -0.005)
(0.210625 0.7875 -0.005)
(0.210625 0.8125 -0.005)
(0.210625 0.8375 -0.005)
(0.210625 0.8625 -0.005)
(0.210625 0.8875 -0.005)
(0.231875 0.0125 -0.005)
(0.231875 0.0375 -0.005)
(0.231875 0.0625 -0.005)
(0.231875 0.0875 -0.005)
(0.231875 0.1125 -0.005)
(0.231875 0.1375 -0.005)
(0.231875 0.1625 -0.005)
(0.231875 0.1875 -0.005)
(0.231875 0.2125 -0.005)
(0.231875 0.2375 -0.005)
(0.231875 0.2625 -0.005)
(0.231875 0.2875 -0.005)
(0.231875 0.3125 -0.005)
(0.231875 0.3375 -0.005)
(0.231875 0.3625 -0.005)
(0.231875 0.3875 -0.005)
(0.231875 0.4125 -0.005)
(0.231875 0.4375 -0.005)
(0.231875 0.4625 -0.005)
(0.231875 0.4875 -0.005)
(0.231875 0.5125 -0.005)
(0.231875 0.5375 -0.005)
(0.231875 0.5625 -0.005)
(0.231875 0.5875 -0.005)
(0.231875 0.6125 -0.005)
(0.231875 0.6375 -0.005)
(0.231875 0.6625 -0.005)
(0.231875 0.6875 -0.005)
(0.231875 0.7125 -0.005)
(0.231875 0.7375 -0.005)
(0.231875 0.7625 -0.005)
(0.231875 0.7875 -0.005)
(0.231875 0.8125 -0.005)
(0.231875 0.8375 -0.005)
(0.231875 0.8625 -0.005)
(0.231875 0.8875 -0.005)
(0.253125 0.0125 -0.005)
(0.253125 0.0375 -0.005)
(0.253125 0.0625 -0.005)
(0.253125 0.0875 -0.005)
(0.253125 0.1125 -0.005)
(0.253125 0.1375 -0.005)
(0.253125 0.1625 -0.005)
(0.253125 0.1875 -0.005)
(0.253125 0.2125 -0.005)
(0.253125 0.2375 -0.005)
(0.253125 0.2625 -0.005)
(0.253125 0.2875 -0.005)
(0.253125 0.3125 -0.005)
(0.253125 0.3375 -0.005)
(0.253125 0.3625 -0.005)
(0.253125 0.3875 -0.005)
(0.253125 0.4125 -0.005)
(0.253125 0.4375 -0.005)
(0.253125 0.4625 -0.005)
(0.253125 0.4875 -0.005)
(0.253125 0.5125 -0.005)
(0.253125 0.5375 -0.005)
(0.253125 0.5625 -0.005)
(0.253125 0.5875 -0.005)
(0.253125 0.6125 -0.005)
(0.253125 0.6375 -0.005)
(0.253125 0.6625 -0.005)
(0.253125 0.6875 -0.005)
(0.253125 0.7125 -0.005)
(0.253125 0.7375 -0.005)
(0.253125 0.7625 -0.005)
(0.253125 0.7875 -0.005)
(0.253125 0.8125 -0.005)
(0.253125 0.8375 -0.005)
(0.253125 0.8625 -0.005)
(0.253125 0.8875 -0.005)
(0.274375 0.0125 -0.005)
(0.274375 0.0375 -0.005)
(0.274375 0.0625 -0.005)
(0.274375 0.0875 -0.005)
(0.274375 0.1125 -0.005)
(0.274375 0.1375 -0.005)
(0.274375 0.1625 -0.005)
(0.274375 0.1875 -0.005)
(0.274375 0.2125 -0.005)
(0.274375 0.2375 -0.005)
(0.274375 0.2625 -0.005)
(0.274375 0.2875 -0.005)
(0.274375 0.3125 -0.005)
(0.274375 0.3375 -0.005)
(0.274375 0.3625 -0.005)
(0.274375 0.3875 -0.005)
(0.274375 0.4125 -0.005)
(0.274375 0.4375 -0.005)
(0.274375 0.4625 -0.005)
(0.274375 0.4875 -0.005)
(0.274375 0.5125 -0.005)
(0.274375 0.5375 -0.005)
(0.274375 0.5625 -0.005)
(0.274375 0.5875 -0.005)
(0.274375 0.6125 -0.005)
(0.274375 0.6375 -0.005)
(0.274375 0.6625 -0.005)
(0.274375 0.6875 -0.005)
(0.274375 0.7125 -0.005)
(0.274375 0.7375 -0.005)
(0.274375 0.7625 -0.005)
(0.274375 0.7875 -0.005)
(0.274375 0.8125 -0.005)
(0.274375 0.8375 -0.005)
(0.274375 0.8625 -0.005)
(0.274375 0.8875 -0.005)
(0.295625 0.0125 -0.005)
(0.295625 0.0375 -0.005)
(0.295625 0.0625 -0.005)
(0.295625 0.0875 -0.005)
(0.295625 0.1125 -0.005)
(0.295625 0.1375 -0.005)
(0.295625 0.1625 -0.005)
(0.295625 0.1875 -0.005)
(0.295625 0.2125 -0.005)
(0.295625 0.2375 -0.005)
(0.295625 0.2625 -0.005)
(0.295625 0.2875 -0.005)
(0.295625 0.3125 -0.005)
(0.295625 0.3375 -0.005)
(0.295625 0.3625 -0.005)
(0.295625 0.3875 -0.005)
(0.295625 0.4125 -0.005)
(0.295625 0.4375 -0.005)
(0.295625 0.4625 -0.005)
(0.295625 0.4875 -0.005)
(0.295625 0.5125 -0.005)
(0.295625 0.5375 -0.005)
(0.295625 0.5625 -0.005)
(0.295625 0.5875 -0.005)
(0.295625 0.6125 -0.005)
(0.295625 0.6375 -0.005)
(0.295625 0.6625 -0.005)
(0.295625 0.6875 -0.005)
(0.295625 0.7125 -0.005)
(0.295625 0.7375 -0.005)
(0.295625 0.7625 -0.005)
(0.295625 0.7875 -0.005)
(0.295625 0.8125 -0.005)
(0.295625 0.8375 -0.005)
(0.295625 0.8625 -0.005)
(0.295625 0.8875 -0.005)
(0.316875 0.0125 -0.005)
(0.316875 0.0375 -0.005)
(0.316875 0.0625 -0.005)
(0.316875 0.0875 -0.005)
(0.316875 0.1125 -0.005)
(0.316875 0.1375 -0.005)
(0.316875 0.1625 -0.005)
(0.316875 0.1875 -0.005)
(0.316875 0.2125 -0.005)
(0.316875 0.2375 -0.005)
(0.316875 0.2625 -0.005)
(0.316875 0.2875 -0.005)
(0.316875 0.3125 -0.005)
(0.316875 0.3375 -0.005)
(0.316875 0.3625 -0.005)
(0.316875 0.3875 -0.005)
(0.316875 0.4125 -0.005)
(0.316875 0.4375 -0.005)
(0.316875 0.4625 -0.005)
(0.316875 0.4875 -0.005)
(0.316875 0.5125 -0.005)
(0.316875 0.5375 -0.005)
(0.316875 0.5625 -0.005)
(0.316875 0.5875 -0.005)
(0.316875 0.6125 -0.005)
(0.316875 0.6375 -0.005)
(0.316875 0.6625 -0.005)
(0.316875 0.6875 -0.005)
(0.316875 0.7125 -0.005)
(0.316875 0.7375 -0.005)
(0.316875 0.7625 -0.005)
(0.316875 0.7875 -0.005)
(0.316875 0.8125 -0.005)
(0.316875 0.8375 -0.005)
(0.316875 0.8625 -0.005)
(0.316875 0.8875 -0.005)
(0.338125 0.0125 -0.005)
(0.338125 0.0375 -0.005)
(0.338125 0.0625 -0.005)
(0.338125 0.0875 -0.005)
(0.338125 0.1125 -0.005)
(0.338125 0.1375 -0.005)
(0.338125 0.1625 -0.005)
(0.338125 0.1875 -0.005)
(0.338125 0.2125 -0.005)
(0.338125 0.2375 -0.005)
(0.338125 0.2625 -0.005)
(0.338125 0.2875 -0.005)
(0.338125 0.3125 -0.005)
(0.338125 0.3375 -0.005)
(0.338125 0.3625 -0.005)
(0.338125 0.3875 -0.005)
(0.338125 0.4125 -0.005)
(0.338125 0.4375 -0.005)
(0.338125 0.4625 -0.005)
(0.338125 0.4875 -0.005)
(0.338125 0.5125 -0.005)
(0.338125 0.5375 -0.005)
(0.338125 0.5625 -0.005)
(0.338125 0.5875 -0.005)
(0.338125 0.6125 -0.005)
(0.338125 0.6375 -0.005)
(0.338125 0.6625 -0.005)
(0.338125 0.6875 -0.005)
(0.338125 0.7125 -0.005)
(0.338125 0.7375 -0.005)
(0.338125 0.7625 -0.005)
(0.338125 0.7875 -0.005)
(0.338125 0.8125 -0.005)
(0.338125 0.8375 -0.005)
(0.338125 0.8625 -0.005)
(0.338125 0.8875 -0.005)
(0.359375 0.0125 -0.005)
(0.359375 0.0375 -0.005)
(0.359375 0.0625 -0.005)
(0.359375 0.0875 -0.005)
(0.359375 0.1125 -0.005)
(0.359375 0.1375 -0.005)
(0.359375 0.1625 -0.005)
(0.359375 0.1875 -0.005)
(0.359375 0.2125 -0.005)
(0.359375 0.2375 -0.005)
(0.359375 0.2625 -0.005)
(0.359375 0.2875 -0.005)
(0.359375 0.3125 -0.005)
(0.359375 0.3375 -0.005)
(0.359375 0.3625 -0.005)
(0.359375 0.3875 -0.005)
(0.359375 0.4125 -0.005)
(0.359375 0.4375 -0.005)
(0.359375 0.4625 -0.005)
(0.359375 0.4875 -0.005)
(0.359375 0.5125 -0.005)
(0.359375 0.5375 -0.005)
(0.359375 0.5625 -0.005)
(0.359375 0.5875 -0.005)
(0.359375 0.6125 -0.005)
(0.359375 0.6375 -0.005)
(0.359375 0.6625 -0.005)
(0.359375 0.6875 -0.005)
(0.359375 0.7125 -0.005)
(0.359375 0.7375 -0.005)
(0.359375 0.7625 -0.005)
(0.359375 0.7875 -0.005)
(0.359375 0.8125 -0.005)
(0.359375 0.8375 -0.005)
(0.359375 0.8625 -0.005)
(0.359375 0.8875 -0.005)
(0.380625 0.0125 -0.005)
(0.380625 0.0375 -0.005)
(0.380625 0.0625 -0.005)
(0.380625 0.0875 -0.005)
(0.380625 0.1125 -0.005)
(0.380625 0.1375 -0.005)
(0.380625 0.1625 -0.005)
(0.380625 0.1875 -0.005)
(0.380625 0.2125 -0.005)
(0.380625 0.2375 -0.005)
(0.380625 0.2625 -0.005)
(0.380625 0.2875 -0.005)
(0.380625 0.3125 -0.005)
(0.380625 0.3375 -0.005)
(0.380625 0.3625 -0.005)
(0.380625 0.3875 -0.005)
(0.380625 0.4125 -0.005)
(0.380625 0.4375 -0.005)
(0.380625 0.4625 -0.005)
(0.380625 0.4875 -0.005)
(0.380625 0.5125 -0.005)
(0.380625 0.5375 -0.005)
(0.380625 0.5625 -0.005)
(0.380625 0.5875 -0.005)
(0.380625 0.6125 -0.005)
(0.380625 0.6375 -0.005)
(0.380625 0.6625 -0.005)
(0.380625 0.6875 -0.005)
(0.380625 0.7125 -0.005)
(0.380625 0.7375 -0.005)
(0.380625 0.7625 -0.005)
(0.380625 0.7875 -0.005)
(0.380625 0.8125 -0.005)
(0.380625 0.8375 -0.005)
(0.380625 0.8625 -0.005)
(0.380625 0.8875 -0.005)
(0.401875 0.0125 -0.005)
(0.401875 0.0375 -0.005)
(0.401875 0.0625 -0.005)
(0.401875 0.0875 -0.005)
(0.401875 0.1125 -0.005)
(0.401875 0.1375 -0.005)
(0.401875 0.1625 -0.005)
(0.401875 0.1875 -0.005)
(0.401875 0.2125 -0.005)
(0.401875 0.2375 -0.005)
(0.401875 0.2625 -0.005)
(0.401875 0.2875 -0.005)
(0.401875 0.3125 -0.005)
(0.401875 0.3375 -0.005)
(0.401875 0.3625 -0.005)
(0.401875 0.3875 -0.005)
(0.401875 0.4125 -0.005)
(0.401875 0.4375 -0.005)
(0.401875 0.4625 -0.005)
(0.401875 0.4875 -0.005)
(0.401875 0.5125 -0.005)
(0.401875 0.5375 -0.005)
(0.401875 0.5625 -0.005)
(0.401875 0.5875 -0.005)
(0.401875 0.6125 -0.005)
(0.401875 0.6375 -0.005)
(0.401875 0.6625 -0.005)
(0.401875 0.6875 -0.005)
(0.401875 0.7125 -0.005)
(0.401875 0.7375 -0.005)
(0.401875 0.7625 -0.005)
(0.401875 0.7875 -0.005)
(0.401875 0.8125 -0.005)
(0.401875 0.8375 -0.005)
(0.401875 0.8625 -0.005)
(0.401875 0.8875 -0.005)
(0.423125 0.0125 -0.005)
(0.423125 0.0375 -0.005)
(0.423125 0.0625 -0.005)
(0.423125 0.0875 -0.005)
(0.423125 0.1125 -0.005)
(0.423125 0.1375 -0.005)
(0.423125 0.1625 -0.005)
(0.423125 0.1875 -0.005)
(0.423125 0.2125 -0.005)
(0.423125 0.2375 -0.005)
(0.423125 0.2625 -0.005)
(0.423125 0.2875 -0.005)
(0.423125 0.3125 -0.005)
(0.423125 0.3375 -0.005)
(0.423125 0.3625 -0.005)
(0.423125 0.3875 -0.005)
(0.423125 0.4125 -0.005)
(0.423125 0.4375 -0.005)
(0.423125 0.4625 -0.005)
(0.423125 0.4875 -0.005)
(0.423125 0.5125 -0.005)
(0.423125 0.5375 -0.005)
(0.423125 0.5625 -0.005)
(0.423125 0.5875 -0.005)
(0.423125 0.6125 -0.005)
(0.423125 0.6375 -0.005)
(0.423125 0.6625 -0.005)
(0.423125 0.6875 -0.005)
(0.423125 0.7125 -0.005)
(0.423125 0.7375 -0.005)
(0.423125 0.7625 -0.005)
(0.423125 0.7875 -0.005)
(0.423125 0.8125 -0.005)
(0.423125 0.8375 -0.005)
(0.423125 0.8625 -0.005)
(0.423125 0.8875 -0.005)
(0.444375 0.0125 -0.005)
(0.444375 0.0375 -0.005)
(0.444375 0.0625 -0.005)
(0.444375 0.0875 -0.005)
(0.444375 0.1125 -0.005)
(0.444375 0.1375 -0.005)
(0.444375 0.1625 -0.005)
(0.444375 0.1875 -0.005)
(0.444375 0.2125 -0.005)
(0.444375 0.2375 -0.005)
(0.444375 0.2625 -0.005)
(0.444375 0.2875 -0.005)
(0.444375 0.3125 -0.005)
(0.444375 0.3375 -0.005)
(0.444375 0.3625 -0.005)
(0.444375 0.3875 -0.005)
(0.444375 0.4125 -0.005)
(0.444375 0.4375 -0.005)
(0.444375 0.4625 -0.005)
(0.444375 0.4875 -0.005)
(0.444375 0.5125 -0.005)
(0.444375 0.5375 -0.005)
(0.444375 0.5625 -0.005)
(0.444375 0.5875 -0.005)
(0.444375 0.6125 -0.005)
(0.444375 0.6375 -0.005)
(0.444375 0.6625 -0.005)
(0.444375 0.6875 -0.005)
(0.444375 0.7125 -0.005)