/*--------------------------------*- C++ -*----------------------------------*\
| =========                 |                                                 |
| \\      /  F ield         | OpenFOAM: The Open Source CFD Toolbox           |
|  \\    /   O peration     | Version:  v2012                                 |
|   \\  /    A nd           | Website:  www.openfoam.com                      |
|    \\/     M anipulation  |                                                 |
\*---------------------------------------------------------------------------*/
FoamFile
{
    version     2.0;
    format      ascii;
    class       volScalarField;
    location    "623";
    object      k;
}
// * * * * * * * * * * * * * * * * * * * * * * * * * * * * * * * * * * * * * //

dimensions      [0 2 -2 0 0 0 0];


internalField   nonuniform List<scalar> 
6108
(
0.0469263
0.0506882
0.0549537
0.059823
0.065424
0.0719218
0.0795334
0.0885497
0.0993688
0.112549
0.128896
0.149608
0.17654
0.212687
0.263151
0.337177
0.452842
0.648929
1.01872
1.82085
0.115373
0.12484
0.135536
0.147694
0.161606
0.177641
0.196278
0.21814
0.244055
0.275147
0.312969
0.359722
0.418601
0.494385
0.594448
0.730558
0.922167
1.20244
1.62877
2.29576
0.153608
0.166188
0.180383
0.19649
0.214874
0.236
0.260452
0.288986
0.322586
0.362556
0.410656
0.469301
0.541876
0.633222
0.750422
0.904076
1.11039
1.39469
1.79718
2.38326
0.175916
0.190301
0.206519
0.224896
0.245837
0.269843
0.297546
0.329746
0.367472
0.412064
0.465292
0.529531
0.608028
0.705302
0.827794
0.984909
1.19079
1.46752
1.85132
2.40615
0.186486
0.201716
0.218879
0.238316
0.260443
0.285778
0.314965
0.348816
0.388366
0.434947
0.490297
0.556722
0.637327
0.73639
0.85995
1.01682
1.2204
1.49213
1.8685
2.4161
0.186525
0.201746
0.218902
0.238333
0.260456
0.285787
0.314972
0.348821
0.38837
0.434949
0.490299
0.556723
0.637328
0.73639
0.859951
1.01682
1.2204
1.49213
1.8685
2.4161
0.176029
0.190386
0.206582
0.224943
0.245871
0.269868
0.297564
0.329759
0.367481
0.412071
0.465297
0.529535
0.60803
0.705304
0.827796
0.98491
1.19079
1.46752
1.85132
2.40615
0.153776
0.166314
0.180475
0.196555
0.214921
0.236034
0.260477
0.289004
0.322599
0.362565
0.410662
0.469306
0.541879
0.633224
0.750424
0.904077
1.1104
1.39469
1.79718
2.38326
0.115544
0.124978
0.135633
0.147764
0.161656
0.177678
0.196305
0.218159
0.244069
0.275158
0.312977
0.359727
0.418605
0.494388
0.59445
0.730559
0.922167
1.20244
1.62877
2.29576
0.0469851
0.0507302
0.0549841
0.0598453
0.0654403
0.0719337
0.0795422
0.0885561
0.0993735
0.112553
0.128898
0.14961
0.176541
0.212689
0.263152
0.337177
0.452842
0.648929
1.01872
1.82085
0.0355276
0.0379363
0.0406088
0.0435879
0.0865108
0.0926298
0.0994069
0.106946
0.115204
0.123348
0.132368
0.1424
0.131968
0.141288
0.151612
0.163093
0.139949
0.149816
0.160748
0.172907
0.140051
0.149902
0.160817
0.17296
0.132255
0.141535
0.15181
0.163245
0.115614
0.123723
0.132667
0.142627
0.087417
0.0932022
0.0997856
0.107213
0.0419126
0.0415471
0.0422228
0.0439381
0.000966363
0.000856493
0.000871831
0.00112575
0.00209528
0.00308827
0.00402145
0.00490076
0.00571005
0.00648478
0.00723981
0.00798306
0.00871981
0.00945397
0.0101887
0.0109269
0.0116713
0.0124245
0.0131896
0.0139697
0.0147684
0.0155898
0.0164383
0.017319
0.0182377
0.0192005
0.0202146
0.021288
0.0224295
0.0236491
0.0249579
0.0263685
0.0278952
0.0295542
0.0313642
0.0333469
0.001704
0.0021091
0.00356373
0.00538976
0.00681888
0.00804319
0.00934592
0.0108908
0.0125437
0.0141693
0.0157929
0.017425
0.0190725
0.0207418
0.022439
0.0241704
0.0259417
0.0277589
0.029628
0.0315551
0.0335473
0.0356122
0.0377593
0.0399989
0.0423432
0.0448059
0.0474034
0.0501541
0.0530792
0.0562028
0.0595528
0.0631607
0.0670617
0.0712967
0.0759124
0.0809629
0.00259973
0.0049906
0.00674348
0.00849669
0.0100156
0.011696
0.0137898
0.0161749
0.018564
0.0208712
0.0231128
0.0253012
0.0274556
0.0295958
0.0317412
0.03391
0.0361187
0.0383824
0.0407146
0.0431283
0.0456359
0.04825
0.050984
0.0538525
0.056872
0.0600611
0.0634411
0.0670363
0.0708743
0.0749866
0.0794088
0.0841818
0.0893522
0.0949733
0.101106
0.107823
0.00387028
0.00754605
0.00939309
0.0110942
0.0129231
0.0152486
0.0180601
0.0210302
0.0238914
0.0265923
0.0291434
0.0315711
0.0339121
0.0362035
0.0384803
0.0407736
0.0431103
0.0455136
0.048003
0.050596
0.0533083
0.0561553
0.0591527
0.0623172
0.0656676
0.0692251
0.0730135
0.0770602
0.0813961
0.0860563
0.0910808
0.0965154
0.102412
0.108831
0.115841
0.123522
0.00526333
0.00994759
0.0117567
0.0135658
0.0158337
0.018752
0.0220629
0.0253736
0.0284746
0.0313324
0.0339647
0.0364146
0.0387351
0.0409786
0.0431929
0.0454196
0.0476934
0.0500429
0.0524916
0.0550595
0.057764
0.0606218
0.0636501
0.0668669
0.0702925
0.07395
0.0778649
0.0820665
0.0865875
0.0914651
0.0967409
0.102462
0.108683
0.115465
0.122879
0.131008
0.00642127
0.0120542
0.0139832
0.0160356
0.0187536
0.0221153
0.0257072
0.0291579
0.0323091
0.0351408
0.0376843
0.0399977
0.0421474
0.0441979
0.0462066
0.0482225
0.0502852
0.0524262
0.0546706
0.0570385
0.0595475
0.0622141
0.0650559
0.0680919
0.0713441
0.0748373
0.0785997
0.0826628
0.0870618
0.0918354
0.0970266
0.102683
0.108857
0.115608
0.123004
0.131122
0.00732575
0.0139414
0.0161198
0.0184955
0.0215968
0.0252342
0.0289264
0.0323568
0.0354069
0.0380712
0.0403953
0.0424504
0.0443139
0.0460599
0.0477533
0.0494478
0.0511851
0.0529965
0.0549042
0.0569247
0.0590714
0.0613573
0.0637971
0.066409
0.0692155
0.0722439
0.0755265
0.0790999
0.0830053
0.0872875
0.0919944
0.0971767
0.102888
0.109188
0.116141
0.123823
0.00811232
0.0156194
0.0181605
0.0208848
0.0242727
0.0280321
0.0316842
0.0349668
0.0377963
0.0401832
0.0421876
0.0438928
0.0453877
0.046756
0.04807
0.049387
0.0507485
0.0521808
0.0536978
0.0553044
0.057001
0.0587872
0.0606657
0.062645
0.0647408
0.0669776
0.0693888
0.0720167
0.0749126
0.078141
0.0817698
0.0858677
0.0905001
0.0957326
0.101629
0.108252
0.00879142
0.0171178
0.0200859
0.02314
0.0267106
0.0304685
0.0339685
0.0370032
0.0395181
0.0415443
0.0431576
0.0444567
0.0455461
0.0465237
0.0474729
0.0484574
0.0495179
0.050673
0.0519214
0.053247
0.0546246
0.0560255
0.0574225
0.0587934
0.0601239
0.0614093
0.0626564
0.063885
0.06513
0.0664442
0.0679377
0.0697534
0.0720101
0.0748352
0.0783047
0.0824538
0.00936982
0.0184687
0.0218774
0.0252115
0.0288677
0.0325235
0.0357862
0.038493
0.0406226
0.0422306
0.0434142
0.0442951
0.0450012
0.045653
0.0463514
0.0471691
0.0481458
0.0492881
0.0505744
0.0519619
0.0533958
0.0548163
0.0561638
0.0573808
0.0584116
0.0591996
0.0596838
0.059795
0.0594535
0.0585699
0.057056
0.054817
0.0517422
0.0485131
0.0456131
0.0433317
0.0326454
0.0236413
0.015441
0.00828575
0.00998078
0.00588655
0.00334035
0.00138635
0.00500948
0.0036278
0.00248574
0.00103566
0.004241
0.00339645
0.00242722
0.000965813
0.0042126
0.00346571
0.00249142
0.000969299
0.00434908
0.00360495
0.00260868
0.00100556
0.00454035
0.00378184
0.00274811
0.00106592
0.00476091
0.00398418
0.00291013
0.00113539
0.0050011
0.00420536
0.00309027
0.00121292
0.00525613
0.00444149
0.00328487
0.00129889
0.00552327
0.00469027
0.00349163
0.00139524
0.00580074
0.00495032
0.00371147
0.00150366
0.00608938
0.00522454
0.00394451
0.00161898
0.0063889
0.00551012
0.00418808
0.00174061
0.00669652
0.00580528
0.00444094
0.00186764
0.00700985
0.00610841
0.00470202
0.00199954
0.0073262
0.00641754
0.00496994
0.00213567
0.00764231
0.00673006
0.00524275
0.00227507
0.00795409
0.00704246
0.00551766
0.00241629
0.00825656
0.00735016
0.00579078
0.00255718
0.00854382
0.00764758
0.00605709
0.00269429
0.00880901
0.00792828
0.00631079
0.00282171
0.00904389
0.00818489
0.00654553
0.00293099
0.00923894
0.00840793
0.00675081
0.0030225
0.00938002
0.00858542
0.00692184
0.00310779
0.00946431
0.00871744
0.00706018
0.00318974
0.00948397
0.00879306
0.00715339
0.00324793
0.00943083
0.0087998
0.00718892
0.00328981
0.00930431
0.00873099
0.00717303
0.00331007
0.00910532
0.0085939
0.00710235
0.00329842
0.00884817
0.00839735
0.00698258
0.00325928
0.00854532
0.00815009
0.006819
0.00319745
0.00820537
0.0078617
0.00661547
0.00311503
0.00784664
0.00754322
0.00637727
0.00301381
0.00748339
0.0072094
0.00611683
0.00289771
0.00712119
0.00687076
0.00584346
0.00277031
0.00677506
0.00653958
0.00556649
0.00263537
0.00645399
0.00622417
0.00529346
0.00249646
0.00616182
0.00592924
0.00502959
0.00235655
0.00589815
0.0056561
0.00477761
0.0022177
0.00565965
0.00540344
0.00453818
0.00208163
0.00544092
0.00516789
0.00431046
0.00194942
0.00523414
0.00494351
0.00409051
0.00182454
0.00503131
0.00472389
0.00387406
0.00171148
0.00482873
0.00450626
0.0036596
0.0016068
0.0046227
0.00428772
0.00344631
0.00150819
0.00440956
0.00406522
0.00323271
0.00141402
0.00418565
0.00383567
0.00301733
0.00132306
0.0039473
0.00359597
0.00279868
0.00123431
0.00369083
0.00334306
0.00257537
0.00114696
0.00341274
0.00307416
0.00234631
0.00106026
0.00311029
0.00278735
0.00211123
0.000973512
0.00278255
0.00248267
0.00187131
0.000886073
0.00243227
0.00216366
0.00162988
0.000797274
0.002068
0.00183895
0.00139279
0.000706348
0.00170571
0.00152261
0.00116753
0.000612183
0.00136786
0.00123293
0.000962754
0.000513064
0.00107896
0.000990542
0.000788846
0.000405292
0.000842458
0.000790854
0.000629822
0.00028553
0.000478361
0.000437481
0.000343658
0.000138567
0.00989302
0.0197421
0.0235912
0.0271433
0.0307994
0.0342613
0.037204
0.0395081
0.041186
0.0423265
0.0430601
0.0435401
0.0439278
0.0443709
0.0449864
0.0458465
0.0469741
0.0483461
0.0499048
0.0515729
0.0532679
0.054913
0.0564435
0.0578082
0.0589673
0.059889
0.0605449
0.0609059
0.060923
0.0605013
0.0595839
0.058068
0.0557881
0.0525093
0.0478041
0.041339
0.010344
0.0208524
0.0250998
0.0287957
0.0323719
0.0355756
0.0381469
0.0400092
0.0412125
0.0418848
0.0421983
0.0423469
0.0425234
0.0428912
0.0435579
0.0445606
0.0458655
0.0473841
0.0489964
0.050576
0.0520086
0.0532025
0.0540895
0.0546194
0.0547553
0.0544604
0.0536868
0.0523864
0.0504547
0.0476906
0.0441865
0.039928
0.0349069
0.029217
0.023095
0.0160344
0.0107344
0.0217904
0.0263861
0.0301524
0.0335798
0.0364794
0.0386463
0.040049
0.040781
0.041015
0.0409671
0.0408682
0.0409261
0.041286
0.0420013
0.0430265
0.0442363
0.0454606
0.0465236
0.0472734
0.0475979
0.047427
0.0467256
0.0454733
0.0436598
0.0412768
0.0382453
0.034774
0.0310688
0.0274076
0.0236605
0.0198574
0.0161039
0.0124227
0.00931851
0.00681414
0.0110533
0.0225415
0.0274437
0.0312054
0.03444
0.0370042
0.0387504
0.0396954
0.0399804
0.0398261
0.0394886
0.0392169
0.0392011
0.0395237
0.0401412
0.0409023
0.0415949
0.0420024
0.0419482
0.0413193
0.0400717
0.0382103
0.035776
0.0328283
0.0294225
0.0259097
0.0227225
0.0197871
0.017066
0.0146025
0.012369
0.0103612
0.00867564
0.00726102
0.00607936
0.00509086
0.011308
0.0231237
0.0282629
0.0319667
0.0349787
0.0371902
0.0385161
0.0390238
0.0389055
0.0384278
0.0378735
0.037481
0.0373818
0.0375601
0.0378606
0.0380445
0.0378643
0.0371266
0.0357311
0.0336709
0.0310182
0.0278996
0.0244817
0.0209988
0.0180792
0.0156866
0.013714
0.0120709
0.0106883
0.00951712
0.00851019
0.00763517
0.00686748
0.00617326
0.00551452
0.00486997
0.0115028
0.0235422
0.0288409
0.0324614
0.0352288
0.0370848
0.0380068
0.0381151
0.0376533
0.0369258
0.0362202
0.0357317
0.0355
0.0353971
0.0351777
0.0345696
0.0333623
0.0314634
0.0289059
0.02583
0.0224552
0.0190653
0.016008
0.0138012
0.0121711
0.0109525
0.0100127
0.00925687
0.00862074
0.00805686
0.00753632
0.00703645
0.00654275
0.00604395
0.00552681
0.00497064
0.0116418
0.023811
0.0292056
0.0327171
0.035229
0.0367401
0.0372894
0.0370514
0.0363177
0.0354158
0.0346127
0.0340304
0.0336014
0.033099
0.0322354
0.030774
0.0286129
0.0258119
0.0225651
0.0191784
0.0160154
0.0134142
0.0117002
0.0105775
0.00981027
0.00925398
0.00881553
0.00843836
0.00808651
0.0077371
0.00737982
0.0070055
0.00660526
0.00617051
0.00569309
0.00515863
0.0117293
0.0239456
0.0293821
0.0327652
0.035022
0.0362107
0.0364309
0.0359108
0.0349824
0.0339781
0.0331183
0.032432
0.0317473
0.0307747
0.0292418
0.0270116
0.0241406
0.0208565
0.017519
0.0145378
0.0122357
0.0107807
0.00991909
0.00938707
0.0090267
0.00875227
0.0085132
0.00828273
0.00804205
0.00777912
0.00748572
0.00715736
0.00678993
0.00637824
0.00591457
0.00538475
0.0117701
0.023962
0.0293965
0.0326392
0.0346508
0.0355494
0.0354938
0.0347625
0.0337168
0.0326744
0.0317875
0.0309838
0.0300059
0.0285466
0.0264053
0.023592
0.0203358
0.0170218
0.0140976
0.0118987
0.0105021
0.00973273
0.00929904
0.00903321
0.00885017
0.00869798
0.00854702
0.00837926
0.00818369
0.00795382
0.00768574
0.00737677
0.00702383
0.00662216
0.00616362
0.00563307
0.011769
0.0238765
0.0292742
0.0323722
0.0341566
0.0348051
0.0345327
0.0336632
0.0325736
0.0315477
0.0306546
0.0297237
0.0284398
0.0265236
0.0238915
0.0207232
0.0174017
0.0144045
0.0121158
0.0106431
0.00983105
0.00940279
0.00917353
0.00903786
0.00893774
0.00884018
0.00872551
0.00858208
0.00840346
0.00818618
0.00792821
0.00762775
0.00728189
0.00688543
0.00642919
0.00589658
0.0117309
0.023705
0.02904
0.0319952
0.0335771
0.0340201
0.0335925
0.0326554
0.0315879
0.0306231
0.0297392
0.0286778
0.0270972
0.0247848
0.0218046
0.0184981
0.0153535
0.0128315
0.0111366
0.0101626
0.00966191
0.00941361
0.00928946
0.00921627
0.00915406
0.00907893
0.00897662
0.00883941
0.00866369
0.00844811
0.00819212
0.00789459
0.00755251
0.00715975
0.00670562
0.00617151
0.0116606
0.0234624
0.0287167
0.0315368
0.0329447
0.0332293
0.032707
0.0317679
0.030779
0.0299102
0.0290466
0.0278565
0.0260034
0.0233711
0.0201812
0.0169064
0.0140676
0.0120142
0.01076
0.0100842
0.009756
0.00960487
0.00953444
0.0094916
0.00944495
0.00937524
0.00927176
0.00912956
0.00894742
0.0087261
0.00846664
0.00816871
0.00782902
0.00744015
0.00698938
0.00645539
0.011563
0.0231627
0.028325
0.0310216
0.0322867
0.0324594
0.0318996
0.0310164
0.0301521
0.0294044
0.0285656
0.0272496
0.0251541
0.0222823
0.0190022
0.0158682
0.0133636
0.0116903
0.0107262
0.0102315
0.0100018
0.00990341
0.00986115
0.00983144
0.00978694
0.00971159
0.00959725
0.00944144
0.00924543
0.00901238
0.00874524
0.00844462
0.00810691
0.00772302
0.00727772
0.00674625
0.0114423
0.0228184
0.0278829
0.0304704
0.0316242
0.03173
0.0311841
0.0304058
0.0297014
0.0290881
0.0282683
0.0268072
0.0245034
0.0214818
0.0182134
0.0152742
0.0130732
0.0116799
0.0109001
0.0105158
0.0103453
0.0102769
0.0102484
0.0102203
0.0101684
0.0100787
0.00994544
0.0097685
0.00955201
0.00930188
0.00902335
0.00871824
0.00838258
0.00800517
0.00756943
0.00704602
0.0113028
0.0224401
0.0274056
0.0299001
0.0309735
0.0310536
0.0305669
0.029933
0.0294116
0.0289299
0.0280813
0.0264801
0.0240012
0.0209173
0.0177409
0.0150175
0.0130687
0.0118715
0.0112149
0.0108981
0.0107625
0.0107105
0.0106852
0.0106502
0.0105829
0.0104712
0.0103115
0.0101064
0.00986307
0.00959074
0.00929728
0.00898604
0.00865271
0.00828665
0.00786418
0.00735129
0.0111481
0.0220374
0.026906
0.0293239
0.0303462
0.0304375
0.0300482
0.0295883
0.0292594
0.028874
0.0279862
0.0262606
0.0236501
0.0205413
0.0175084
0.0150082
0.0132644
0.0122039
0.0116306
0.0113576
0.0112422
0.0111962
0.0111657
0.0111162
0.0110262
0.0108851
0.0106917
0.0104515
0.0101752
0.00987554
0.00956364
0.00924541
0.00891755
0.00856405
0.00815762
0.00765883
0.0109816
0.0216181
0.026394
0.0287519
0.0297498
0.0298848
0.0296235
0.0293569
0.029217
0.0288921
0.0279711
0.0261417
0.0234383
0.0203397
0.0174644
0.015177
0.0136036
0.0126446
0.0121276
0.0118831
0.0117776
0.0117293
0.0116865
0.0116153
0.0114952
0.0113173
0.0110828
0.0108005
0.0104848
0.0101528
0.00982095
0.0094957
0.00917219
0.00883263
0.00844553
0.00796517
0.0108062
0.0211886
0.0258779
0.0281914
0.0291891
0.0293951
0.0292848
0.0292202
0.0292449
0.0289736
0.0280273
0.0261156
0.0233525
0.0202953
0.0175659
0.015474
0.014046
0.0131718
0.0126955
0.0124682
0.0123647
0.0123071
0.0122449
0.0121446
0.0119868
0.0117644
0.011481
0.0111495
0.010788
0.010422
0.0100671
0.00973169
0.00941165
0.00908754
0.00872336
0.00826632
0.0106244
0.0207542
0.0253637
0.0276477
0.0286661
0.0289656
0.029022
0.029159
0.0293186
0.0291081
0.0281466
0.0261736
0.0233797
0.0203845
0.0177942
0.0158744
0.0145694
0.0137674
0.013325
0.0131083
0.0130005
0.0129272
0.0128384
0.0127013
0.0124976
0.0122221
0.0118818
0.011494
0.0110851
0.0106792
0.0102965
0.00994804
0.00963068
0.00932353
0.00898603
0.00855762
0.0104384
0.020319
0.024856
0.0271238
0.0281812
0.0285917
0.0288244
0.0291569
0.0294322
0.0292873
0.0283213
0.0263071
0.0235082
0.0205895
0.0181326
0.0163594
0.0151625
0.0144236
0.014011
0.0138002
0.0136826
0.0135868
0.0134639
0.0132817
0.0130231
0.0126855
0.0122815
0.0118338
0.0113699
0.0109183
0.0105034
0.0101391
0.00982367
0.00953497
0.00922793
0.00883369
0.01025
0.0198863
0.0243581
0.0266218
0.0277332
0.0282676
0.0286805
0.0291989
0.029579
0.0295039
0.0285438
0.0265083
0.0237276
0.0208966
0.0185676
0.0169146
0.0158183
0.0151373
0.0147508
0.0145409
0.0144078
0.0142827
0.0141173
0.0138807
0.0135574
0.0131513
0.0126775
0.0121615
0.0116354
0.0111324
0.0106812
0.0102987
0.00998464
0.00971585
0.00944294
0.00908841
0.0100609
0.0194586
0.0238724
0.0261423
0.02732
0.0279869
0.0285778
0.0292609
0.0297521
0.0297513
0.0288077
0.0267702
0.0240293
0.0212946
0.0190869
0.0175388
0.0165313
0.0159041
0.0155405
0.015327
0.0151725
0.0150103
0.0147933
0.0144921
0.0140977
0.0136147
0.0130619
0.0124691
0.0118736
0.0113139
0.0108228
0.0104203
0.0101072
0.00985985
0.00962452
0.00931497
0.00987212
0.0190377
0.0234003
0.0256856
0.0269391
0.0277433
0.0285066
0.0293385
0.0299459
0.0300238
0.0291077
0.0270872
0.0244054
0.021774
0.0196805
0.0182301
0.0173005
0.0167206
0.0163752
0.016154
0.0159717
0.0157638
0.0154857
0.0151128
0.0146372
0.014067
0.0134254
0.0127473
0.0120756
0.0114541
0.0109202
0.0104964
0.0101847
0.00996022
0.00976536
0.00950545
0.00968482
0.0186252
0.0229427
0.025251
0.0265878
0.027531
0.0284594
0.0294284
0.0301552
0.0303165
0.029439
0.027454
0.0248495
0.0223274
0.0203409
0.018984
0.0181249
0.0175846
0.0172521
0.0170174
0.0167994
0.0165375
0.0161901
0.0157347
0.0151666
0.0144983
0.0137578
0.0129857
0.012231
0.0115436
0.0109647
0.0105193
0.0102094
0.0100088
0.00985645
0.00965046
0.0094998
0.0182221
0.0225002
0.0248378
0.0262629
0.0273448
0.0284302
0.0295279
0.030376
0.030625
0.0297975
0.0278663
0.0253558
0.0229492
0.0210674
0.0197966
0.0190011
0.0184933
0.0181671
0.0179114
0.0176504
0.0173255
0.0168977
0.016348
0.0156755
0.0148975
0.0140474
0.0131727
0.0123289
0.0115719
0.010947
0.0104801
0.0101724
0.00999528
0.00988402
0.00973536
0.0093177
0.0178289
0.0220728
0.0244449
0.0259616
0.0271798
0.0284144
0.0296342
0.0306049
0.0309458
0.03018
0.0283197
0.0259172
0.0236323
0.0218583
0.0206675
0.0199265
0.0194431
0.019115
0.0188315
0.0185178
0.0181189
0.0175986
0.0169418
0.0161521
0.015252
0.0142817
0.0132958
0.0123576
0.0115288
0.0108578
0.0103703
0.0100648
0.00990701
0.00983728
0.00975356
0.00913903
0.0174462
0.0216603
0.024071
0.0256812
0.0270323
0.0284081
0.0297453
0.0308389
0.0312758
0.0305833
0.0288104
0.0265278
0.0243724
0.0227071
0.0215915
0.0208966
0.0204295
0.0200922
0.0197703
0.0193928
0.0189075
0.0182816
0.0175039
0.0165832
0.0155483
0.0144469
0.0133422
0.0123054
0.0114044
0.0106893
0.0101838
0.00988152
0.00974036
0.00971469
0.00969843
0.008964
0.0170742
0.0212626
0.0237149
0.0254192
0.0268989
0.0284084
0.0298592
0.0310757
0.0316126
0.0310051
0.029335
0.0271842
0.0251642
0.0236085
0.0225632
0.0219072
0.0214491
0.0210913
0.0207191
0.0202652
0.0196802
0.0189343
0.018021
0.0169548
0.015772
0.0145291
0.013299
0.0121618
0.0111908
0.0104365
0.00991827
0.00961914
0.00949935
0.00952062
0.00957134
0.00879299
0.0167126
0.0208792
0.0233753
0.0251735
0.0267769
0.0284133
0.0299745
0.0313133
0.0319539
0.0314426
0.0298905
0.0278829
0.0260038
0.0245573
0.0235798
0.0229538
0.0224948
0.0221038
0.0216682
0.0211241
0.0204246
0.0195435
0.018479
0.0172524
0.0159086
0.0145146
0.0131547
0.0119183
0.0108834
0.0100985
0.00957616
0.00928544
0.00919359
0.00926365
0.00937806
0.00862641
0.0163616
0.0205095
0.0230513
0.0249422
0.0266644
0.028422
0.0300905
0.0315491
0.0322951
0.031891
0.0304731
0.0286211
0.0268892
0.0255534
0.024637
0.024029
0.0235593
0.0231203
0.0226068
0.0219574
0.0211278
0.0200951
0.0188631
0.0174609
0.0159435
0.0143907
0.0128997
0.01157
0.0104825
0.0096802
0.00916588
0.00889285
0.00883528
0.00895444
0.00912644
0.00846427
0.0160211
0.020153
0.0227421
0.024725
0.0265615
0.0284322
0.0302051
0.0317811
0.0326355
0.0323494
0.0310799
0.0293949
0.0278158
0.0265887
0.0257257
0.0251257
0.0246347
0.02413
0.0235228
0.0227523
0.021776
0.0205747
0.0191586
0.0175656
0.0158634
0.0141466
0.012528
0.0111172
0.00999436
0.00919295
0.00870144
0.00845651
0.00843857
0.00860522
0.00882639
0.00830663
0.0156914
0.0198101
0.022448
0.0245198
0.0264649
0.0284426
0.0303176
0.0320089
0.0329752
0.0328177
0.0317091
0.0302005
0.028777
0.0276545
0.026836
0.0262313
0.0257009
0.0251188
0.024403
0.0234951
0.0223552
0.020968
0.0193509
0.0175529
0.0156565
0.0137749
0.0120387
0.0105663
0.00943242
0.00865449
0.00819951
0.00799321
0.00801869
0.00822857
0.00848481
0.00815351
0.0153735
0.0194801
0.0221665
0.024325
0.0263731
0.0284512
0.030428
0.0322325
0.0333145
0.0332953
0.0323587
0.0310335
0.029766
0.028742
0.0279576
0.0273346
0.0267485
0.0260743
0.0252341
0.0241724
0.0228514
0.0212608
0.0194265
0.0174106
0.0153141
0.0132728
0.0114373
0.00993205
0.00881802
0.00808778
0.00768117
0.00752151
0.00759128
0.00783715
0.00810824
0.00800661
0.0150659
0.0191621
0.0218971
0.0241396
0.0262853
0.0284585
0.0305358
0.032452
0.0336538
0.033782
0.0330267
0.0318896
0.0307757
0.0298419
0.0290798
0.0284239
0.0277661
0.0269838
0.0260032
0.0247707
0.0232512
0.0214399
0.0193731
0.0171291
0.0148315
0.0126436
0.0107372
0.00923702
0.0081828
0.00751824
0.00716822
0.00705865
0.00717055
0.00744507
0.00773023
0.00786545
0.0147684
0.0188556
0.0216389
0.0239626
0.026201
0.0284647
0.030641
0.0326679
0.0339937
0.0342776
0.0337109
0.0327638
0.0317986
0.0309445
0.0301912
0.0294869
0.0287409
0.0278346
0.0266971
0.025277
0.0235419
0.0214934
0.0191809
0.0167023
0.0142095
0.0118982
0.00996035
0.00851314
0.00753874
0.00696416
0.00667658
0.00661781
0.00676726
0.00705998
0.00735454
0.00772961
0.0144807
0.0185603
0.0213913
0.0237934
0.0261197
0.0284701
0.0307437
0.0328807
0.0343346
0.0347815
0.0344089
0.0336512
0.0328267
0.0320393
0.0312797
0.0305108
0.0296597
0.0286134
0.0273031
0.025679
0.0237118
0.0214115
0.018843
0.0161291
0.0134561
0.0110563
0.00913548
0.00777839
0.00692495
0.00644732
0.00621922
0.0062082
0.00638922
0.00668447
0.00698935
0.00759873
0.0142027
0.0182759
0.0211539
0.0236314
0.0260415
0.028475
0.0308444
0.0330912
0.0346772
0.0352933
0.0351182
0.0345463
0.0338517
0.0331158
0.0323333
0.0314826
0.0305093
0.0293077
0.0278093
0.0259656
0.0237513
0.0211868
0.0183571
0.0154147
0.0125881
0.0101475
0.00830391
0.00708634
0.00636503
0.00597205
0.00580015
0.00583446
0.00604536
0.00635139
0.0066517
0.00747251
0.013934
0.0180019
0.0209261
0.0234761
0.0259661
0.02848
0.0309435
0.0333002
0.0350221
0.0358124
0.0358357
0.0354434
0.0348651
0.0341635
0.0333401
0.0323903
0.0312772
0.0299054
0.0282045
0.0261269
0.0236524
0.0208157
0.0177263
0.0145726
0.0116327
0.00921219
0.00750749
0.00645972
0.00586781
0.00554255
0.00542244
0.00550033
0.00573948
0.00605441
0.00634172
0.00735069
0.0136746
0.0177381
0.0207076
0.0233272
0.0258936
0.0284854
0.0310416
0.0335085
0.0353698
0.0363381
0.0365587
0.0363367
0.0358587
0.0351723
0.0342902
0.0332247
0.0319528
0.0303956
0.0284789
0.0261544
0.0234098
0.0202988
0.0169611
0.0136264
0.0106284
0.0083009
0.00678548
0.00591681
0.0054331
0.00516112
0.00508845
0.00520865
0.00547307
0.00579289
0.00606444
0.00723304
0.0134241
0.0174842
0.0204979
0.0231844
0.0258241
0.0284916
0.0311393
0.033717
0.035721
0.0368695
0.0372839
0.0372203
0.036824
0.036133
0.0351741
0.0339779
0.0325301
0.0307704
0.0286239
0.026041
0.0230207
0.0196427
0.0160812
0.0126111
0.00962346
0.00745869
0.00616771
0.00546497
0.00505573
0.00482677
0.00479901
0.00495934
0.00524296
0.00556327
0.00581935
0.00711937
0.0131824
0.0172398
0.0202967
0.0230477
0.0257578
0.0284991
0.0312374
0.0339267
0.0360759
0.0374055
0.0380078
0.0380876
0.0377523
0.0370355
0.0359821
0.0346408
0.0330047
0.031023
0.0286298
0.0257798
0.0224851
0.0188609
0.0151175
0.0115736
0.00867423
0.00673067
0.005674
0.00510223
0.00473564
0.00453843
0.00455223
0.00474826
0.00504526
0.00536336
0.00560212
0.00700949
0.0129491
0.0170047
0.0201038
0.0229167
0.0256948
0.0285084
0.0313366
0.0341385
0.036435
0.0379449
0.0387262
0.0389314
0.0386335
0.037868
0.0367013
0.0351995
0.0333633
0.0311487
0.0284945
0.0253634
0.0218048
0.0179751
0.0141125
0.0105697
0.00783777
0.0061502
0.00530855
0.00481925
0.00446663
0.00429116
0.00434106
0.00456628
0.0048761
0.0051871
0.00540632
0.00690326
0.0127242
0.0167787
0.0199189
0.0227916
0.0256353
0.0285199
0.0314377
0.0343532
0.0367984
0.0384856
0.0394341
0.039743
0.0394563
0.0386176
0.0373174
0.035639
0.0335903
0.0311324
0.0282121
0.0248072
0.0210005
0.0170195
0.0131206
0.00965964
0.00715553
0.00573009
0.00506118
0.00460452
0.00423908
0.00407653
0.00415723
0.00440846
0.00472571
0.005026
0.00522329
0.00680054
0.0125074
0.0165615
0.0197417
0.0226721
0.0255796
0.0285342
0.0315413
0.0345714
0.0371656
0.0390252
0.0401256
0.0405133
0.0402091
0.0392715
0.0378179
0.0359476
0.033675
0.0309668
0.0277824
0.0241237
0.0201145
0.016059
0.0122056
0.00889837
0.00664901
0.0054648
0.0049166
0.00445029
0.00405007
0.00389202
0.00399862
0.00426848
0.00458447
0.00486776
0.0050428
0.00670123
0.0122984
0.0163528
0.0195722
0.0225583
0.0255278
0.0285517
0.0316481
0.0347937
0.0375363
0.0395607
0.0407944
0.0412327
0.0408811
0.0398197
0.0381937
0.0361181
0.0336129
0.0306529
0.0272163
0.0233405
0.019198
0.015155
0.0114266
0.00832711
0.00633621
0.00533853
0.00485984
0.00435366
0.00390362
0.00374003
0.00385814
0.00413028
0.00443935
0.0047061
0.00486047
0.0066052
0.0120972
0.0161526
0.0194101
0.0224502
0.0254802
0.0285728
0.0317586
0.0350203
0.0379093
0.0400885
0.0414336
0.0418923
0.0414635
0.040255
0.0384399
0.0361469
0.0334035
0.0301963
0.0265286
0.0224905
0.0183008
0.0143606
0.0108283
0.00796378
0.0062074
0.00532708
0.00487631
0.00431612
0.00380791
0.00361719
0.00372373
0.00398797
0.00428624
0.0045366
0.00467216
0.00651237
0.0119036
0.0159606
0.0192552
0.0223477
0.0254369
0.0285979
0.0318735
0.0352514
0.0382833
0.0406044
0.0420362
0.0424841
0.0419499
0.0405737
0.0385554
0.0360346
0.033048
0.0296125
0.0257741
0.0216363
0.0174721
0.0137022
0.0104116
0.00778929
0.00622299
0.00540453
0.00495872
0.00435197
0.00376559
0.00351508
0.00359004
0.00383709
0.00412138
0.00435542
0.00447399
0.00642266
0.0117172
0.0157765
0.0191075
0.0222508
0.0253982
0.0286275
0.0319929
0.0354868
0.0386567
0.0411043
0.0425956
0.0430015
0.0423362
0.0407753
0.0385424
0.0357848
0.0325788
0.0289607
0.0250017
0.0208204
0.0167453
0.0132025
0.0101763
0.00776731
0.00632564
0.00553299
0.00509617
0.00445714
0.00377555
0.00343269
0.00345417
0.00367406
0.00394128
0.0041589
0.00426221
0.00633598
0.0115381
0.0156003
0.0189667
0.0221597
0.0253643
0.0286618
0.0321172
0.0357262
0.0390272
0.0415833
0.0431059
0.0434397
0.0426209
0.040862
0.0384057
0.0354244
0.0320339
0.0282722
0.0242406
0.020079
0.0161547
0.0128667
0.0101054
0.0078782
0.00648835
0.00570257
0.00528316
0.00463754
0.0038503
0.00337651
0.00331606
0.00349604
0.00374254
0.00394346
0.00403307
0.00625226
0.0113659
0.0154317
0.0188328
0.0220741
0.0253353
0.0287011
0.0322466
0.0359689
0.0393925
0.042037
0.0435616
0.0437956
0.0428049
0.040839
0.0381585
0.0349866
0.0314383
0.0275765
0.023518
0.0194382
0.0157191
0.0126775
0.0101719
0.0081136
0.00671128
0.0059088
0.0055089
0.00489644
0.00401016
0.00336189
0.00317983
0.00330132
0.00352182
0.00370545
0.0037828
0.00617143
0.0112005
0.0152706
0.0187057
0.0219943
0.0253114
0.0287457
0.032381
0.036214
0.0397499
0.0424608
0.0439585
0.0440678
0.0428911
0.0407111
0.0378312
0.0344917
0.0308167
0.0268976
0.0228622
0.0189176
0.0154317
0.0126278
0.010353
0.00843489
0.0069923
0.00614987
0.00575435
0.00522338
0.00427902
0.00341759
0.00305706
0.00309056
0.00327599
0.00344127
0.00350776
0.00609344
0.0110419
0.0151168
0.0185851
0.0219201
0.0252928
0.0287956
0.0325202
0.0364604
0.0400963
0.0428505
0.0442935
0.044257
0.0428852
0.0404951
0.0374428
0.0339615
0.0301918
0.026259
0.0222931
0.0185222
0.0152799
0.0127007
0.0106243
0.00881467
0.00734949
0.00643616
0.00599806
0.00558585
0.00467238
0.00358768
0.00297259
0.00286963
0.00300245
0.00314789
0.00320492
0.00601821
0.0108897
0.0149701
0.0184711
0.0218516
0.0252794
0.028851
0.0326641
0.0367066
0.0404288
0.0432022
0.0445646
0.0443654
0.0427924
0.0402136
0.0370117
0.0334179
0.0295859
0.0256804
0.0218215
0.0182473
0.0152472
0.0128796
0.0109673
0.00927318
0.00778815
0.00677335
0.0062362
0.00593168
0.00517145
0.00392877
0.00297647
0.0026561
0.00270048
0.00282427
0.00287302
0.00594569
0.0107438
0.0148304
0.0183634
0.0217887
0.0252715
0.0289119
0.032812
0.0369511
0.0407443
0.0435128
0.0447714
0.0443976
0.042625
0.0398823
0.036556
0.0328822
0.0290281
0.0251766
0.0214502
0.018084
0.0153165
0.013145
0.0113744
0.00980289
0.00834451
0.0071736
0.00649261
0.00620983
0.00569782
0.00447631
0.00315116
0.00249219
0.00239366
0.00247604
0.00251469
0.00587583
0.0106043
0.0146974
0.0182621
0.0217315
0.0252691
0.0289782
0.0329635
0.037192
0.0410397
0.0437798
0.0449148
0.0443587
0.0423987
0.039515
0.0360913
0.0323695
0.0285282
0.0247514
0.0211753
0.018022
0.0154738
0.0134833
0.0118462
0.0103773
0.00896889
0.00770814
0.00683311
0.00641831
0.0061286
0.00517428
0.00359928
0.00245999
0.0021062
0.00211461
0.00213876
0.00580856
0.0104709
0.0145711
0.0181668
0.0216799
0.0252721
0.0290496
0.0331176
0.0374274
0.0413123
0.0440018
0.044997
0.0442549
0.0421277
0.0391246
0.0356301
0.0318896
0.0280893
0.0244077
0.0209964
0.0180523
0.0157073
0.013883
0.0123751
0.0110012
0.00966797
0.0083652
0.00728121
0.00664373
0.0063865
0.00582693
0.00436654
0.00269899
0.0018956
0.00176196
0.00176202
0.00574384
0.0103433
0.0144512
0.0180776
0.0216338
0.0252806
0.029126
0.0332735
0.0376552
0.0415595
0.0441779
0.0450213
0.0440962
0.0418216
0.038722
0.0351816
0.0314491
0.0277149
0.0241491
0.020909
0.0181655
0.0160066
0.0143335
0.0129483
0.0116759
0.0104205
0.00914873
0.00794058
0.00702952
0.0065526
0.00625176
0.00526676
0.00338324
0.00189495