/*--------------------------------*- C++ -*----------------------------------*\
| =========                 |                                                 |
| \\      /  F ield         | OpenFOAM: The Open Source CFD Toolbox           |
|  \\    /   O peration     | Version:  v2012                                 |
|   \\  /    A nd           | Website:  www.openfoam.com                      |
|    \\/     M anipulation  |                                                 |
\*---------------------------------------------------------------------------*/
FoamFile
{
    version     2.0;
    format      ascii;
    class       volScalarField;
    location    "623";
    object      nut;
}
// * * * * * * * * * * * * * * * * * * * * * * * * * * * * * * * * * * * * * //

dimensions      [0 2 -1 0 0 0 0];


internalField   nonuniform List<scalar> 
6108
(
0.000486466
0.000505589
0.000526433
0.000549261
0.000574398
0.000602247
0.000633314
0.000668249
0.000707896
0.000753382
0.000806239
0.000868604
0.000943552
0.00103566
0.00115199
0.00130399
0.00151119
0.00180902
0.00226658
0.00303027
0.00268458
0.00278575
0.00289415
0.00301076
0.00313675
0.00327348
0.0034226
0.00358616
0.00376672
0.00396758
0.00419309
0.00444912
0.00474382
0.00508891
0.00550178
0.00600946
0.00665617
0.00751934
0.00874856
0.0106814
0.00457765
0.00473838
0.00490966
0.00509276
0.0052891
0.00550034
0.00572842
0.00597569
0.00624498
0.00653983
0.00686471
0.00722534
0.00762919
0.00808605
0.00860881
0.00921407
0.00992223
0.0107548
0.0117237
0.0127958
0.00577612
0.00597049
0.00617697
0.00639678
0.00663126
0.00688191
0.00715039
0.00743854
0.00774843
0.00808239
0.008443
0.00883312
0.00925582
0.00971421
0.0102111
0.010748
0.0113238
0.0119314
0.012553
0.0131566
0.00635007
0.00655917
0.006781
0.00701665
0.00726733
0.00753429
0.00781882
0.00812226
0.0084459
0.00879089
0.00915813
0.00954803
0.00996016
0.0103929
0.0108426
0.0113033
0.0117661
0.0122205
0.0126589
0.0130921
0.0063521
0.00656061
0.00678202
0.00701738
0.00726785
0.00753465
0.00781907
0.00812243
0.00844601
0.00879096
0.00915818
0.00954806
0.00996018
0.0103929
0.0108426
0.0113033
0.0117661
0.0122205
0.0126589
0.0130921
0.00578193
0.00597458
0.00617987
0.00639881
0.00663266
0.00688284
0.00715101
0.00743895
0.00774871
0.00808257
0.00844312
0.0088332
0.00925587
0.00971424
0.0102111
0.010748
0.0113238
0.0119314
0.012553
0.0131566
0.00458618
0.0047443
0.00491379
0.00509556
0.00529097
0.0055016
0.00572927
0.00597626
0.00624537
0.00654009
0.00686488
0.00722545
0.00762926
0.0080861
0.00860884
0.00921409
0.00992225
0.0107548
0.0117237
0.0127958
0.00269184
0.0027911
0.00289771
0.00301321
0.00313843
0.00327462
0.00342338
0.00358669
0.00376707
0.00396782
0.00419325
0.00444922
0.00474389
0.00508895
0.00550181
0.00600948
0.00665618
0.00751935
0.00874857
0.0106814
0.000486771
0.000505799
0.000526578
0.000549363
0.00057447
0.000602297
0.000633349
0.000668273
0.000707913
0.000753394
0.000806247
0.000868609
0.000943556
0.00103566
0.00115199
0.00130399
0.00151119
0.00180902
0.00226658
0.00303027
0.00042328
0.000437393
0.000452537
0.000468843
0.00233679
0.00241648
0.00250063
0.00258979
0.00402003
0.00414835
0.00428355
0.00442637
0.00509901
0.00525502
0.00541933
0.00559274
0.0056215
0.0057892
0.00596599
0.00615266
0.00562967
0.00579521
0.00597021
0.00615557
0.00512691
0.00527508
0.00543285
0.00560154
0.00408548
0.00419442
0.00431236
0.00444248
0.00253511
0.0025397
0.00257436
0.00262593
0.000807111
0.000698332
0.000611217
0.000540082
6.98096e-05
6.57214e-05
6.63072e-05
7.53471e-05
0.000102793
0.000109644
0.000100437
0.000152367
0.000169693
0.000180839
0.000191077
0.000200645
0.0002097
0.000218349
0.000226676
0.000234744
0.000242607
0.000250313
0.000257905
0.000265422
0.000272905
0.000280391
0.000287921
0.000295533
0.00030327
0.000311172
0.000319284
0.000327651
0.000336321
0.000345344
0.000354771
0.000364659
0.000375067
0.000386059
0.000397705
0.000410083
0.000115875
0.000216323
0.000291824
0.000308075
0.000315374
0.000345833
0.000388134
0.000443718
0.000506269
0.000569633
0.000633811
0.000698855
0.000764739
0.000831396
0.000898703
0.000966483
0.0010345
0.0011025
0.0011702
0.00123733
0.00130365
0.00136902
0.00143337
0.0014967
0.00155905
0.00162059
0.00168152
0.00174212
0.00180271
0.00186367
0.00192542
0.00198837
0.00205294
0.00211961
0.00218883
0.00226107
0.000143126
0.000429711
0.000455759
0.000467726
0.000500626
0.000565343
0.000663221
0.00078313
0.000910879
0.00104061
0.00117071
0.00130016
0.00142841
0.00155505
0.00167972
0.00180209
0.00192188
0.00203882
0.00215275
0.00226359
0.00237139
0.00247628
0.00257854
0.00267851
0.00277662
0.00287336
0.0029693
0.003065
0.0031611
0.0032582
0.00335694
0.00345797
0.00356193
0.00366948
0.00378125
0.00389788
0.000174633
0.000554679
0.000597677
0.000631829
0.000701646
0.000819595
0.000978424
0.00115892
0.00134547
0.00153123
0.00171266
0.00188795
0.00205634
0.00221757
0.00237169
0.00251894
0.00265972
0.00279447
0.00292377
0.00304821
0.00316844
0.00328517
0.0033991
0.00351097
0.00362151
0.00373145
0.00384151
0.00395241
0.00406485
0.00417948
0.004297
0.00441804
0.00454326
0.00467332
0.00480886
0.00495053
0.00020365
0.000671668
0.000717038
0.000812679
0.000929745
0.00110252
0.00131467
0.00154323
0.00177261
0.00199453
0.00220439
0.00240034
0.00258212
0.00275039
0.00290628
0.00305119
0.0031866
0.00331399
0.00343476
0.00355024
0.00366168
0.0037702
0.00387687
0.00398267
0.00408851
0.00419523
0.00430363
0.00441444
0.00452834
0.00464598
0.00476794
0.00489482
0.00502714
0.00516545
0.00531026
0.00546209
0.000224939
0.000697936
0.000835379
0.00100709
0.00117721
0.00139913
0.0016519
0.00191233
0.00216512
0.00240133
0.00261643
0.00280931
0.00298089
0.00313321
0.00326883
0.00339043
0.00350063
0.00360182
0.00369615
0.00378549
0.00387151
0.00395564
0.00403919
0.00412331
0.00420904
0.00429731
0.00438897
0.00448479
0.00458547
0.00469164
0.00480388
0.00492271
0.00504861
0.00518201
0.00532324
0.00547248
0.00024026
0.000752266
0.000964863
0.0012111
0.00142987
0.00169355
0.0019732
0.00224877
0.00250598
0.0027364
0.00293658
0.0031068
0.00324954
0.00336841
0.00346738
0.0035503
0.00362072
0.00368167
0.00373578
0.00378522
0.00383184
0.00387723
0.00392281
0.00396982
0.00401942
0.00407264
0.00413044
0.00419369
0.00426319
0.00433967
0.00442381
0.00451627
0.00461777
0.00472913
0.00485137
0.00498581
0.000252829
0.000837955
0.00110361
0.00141788
0.00167733
0.00197109
0.00226614
0.00254173
0.00278696
0.00299513
0.00316462
0.0032976
0.00339835
0.00347205
0.00352397
0.00355896
0.00358116
0.00359399
0.00360015
0.00360176
0.00360053
0.00359787
0.00359501
0.00359307
0.00359316
0.00359633
0.00360362
0.003616
0.0036344
0.00365975
0.00369279
0.00373408
0.00378405
0.00384323
0.0039125
0.00399066
0.000263199
0.000940995
0.00124484
0.00162047
0.00191143
0.00222306
0.00252192
0.00278609
0.00300654
0.00318049
0.00330881
0.00339595
0.00344826
0.00347266
0.0034758
0.00346339
0.00344003
0.00340907
0.00337276
0.00333247
0.0032889
0.00324239
0.00319312
0.00314124
0.00308705
0.00303098
0.00297372
0.00291611
0.00285921
0.00280409
0.00275254
0.00270621
0.00266505
0.00262767
0.00259103
0.00255633
0.000271719
0.00104689
0.00138412
0.0018133
0.00212679
0.00244519
0.00273654
0.00298057
0.0031679
0.00330036
0.0033826
0.00342188
0.00342706
0.00340715
0.0033703
0.00332302
0.0032699
0.00321359
0.00315504
0.00309395
0.00302923
0.00295942
0.00288293
0.00279824
0.00270394
0.00259868
0.00248124
0.00235048
0.00220546
0.00204562
0.00187126
0.00168331
0.00148325
0.00128635
0.00110368
0.000942558
0.000627442
0.000369399
0.000233816
0.000138052
0.000482971
0.000342427
0.000250561
0.000104518
0.000601266
0.000565818
0.000459842
9.03365e-05
0.00106593
0.00090486
0.000541757
8.72371e-05
0.0014038
0.00106086
0.000564821
8.73944e-05
0.00156538
0.00112356
0.000581077
8.90142e-05
0.00165844
0.00116929
0.000595876
9.16469e-05
0.00173197
0.00121676
0.000617184
9.45862e-05
0.00180104
0.00126819
0.000643443
9.77622e-05
0.00186884
0.00132214
0.00067237
0.000101168
0.0019351
0.0013766
0.000701747
0.000104853
0.00199866
0.00142972
0.000731067
0.000108851
0.00206036
0.00148434
0.000761976
0.000112947
0.00212101
0.00153929
0.000793691
0.000117113
0.00217932
0.00159379
0.000825888
0.000121311
0.00223437
0.00164719
0.000858316
0.000125522
0.00228532
0.00169887
0.000890707
0.000129725
0.00233134
0.00174812
0.000922743
0.000133891
0.00237151
0.00179412
0.000954013
0.000137984
0.00240481
0.00183593
0.000983989
0.00014195
0.00243013
0.00187242
0.00101199
0.000145706
0.00244624
0.0019023
0.00103719
0.000149112
0.00245169
0.00192414
0.00105872
0.000151972
0.00244479
0.00193634
0.00107571
0.000154326
0.00226859
0.0019367
0.00108772
0.000156488
0.00208194
0.00192885
0.00109529
0.000158538
0.0019412
0.00183484
0.00109603
0.000159977
0.00183795
0.00175356
0.00109259
0.000161005
0.00176115
0.00170336
0.00108498
0.000161501
0.00170327
0.00167112
0.0010726
0.000161216
0.00166769
0.00165896
0.00105595
0.000160257
0.00165944
0.00167376
0.00103569
0.000158729
0.00168218
0.00168235
0.00101162
0.00015667
0.00174347
0.00163283
0.000983338
0.000154104
0.00183272
0.00158294
0.000952259
0.000151106
0.00180003
0.00153168
0.000919107
0.000147747
0.00175105
0.00147998
0.000884754
0.000144104
0.00170431
0.00142855
0.000849991
0.000140255
0.00165953
0.0013779
0.000815465
0.000136268
0.00161604
0.0013282
0.000781608
0.000132192
0.00157287
0.00127937
0.000748646
0.000128073
0.00152857
0.00123083
0.000716466
0.000123939
0.00148035
0.00118031
0.000682975
0.000119903
0.0014257
0.00112529
0.000646331
0.000116129
0.00136484
0.0010666
0.000607904
0.000112522
0.00129802
0.00100495
0.000568883
0.000109014
0.00122552
0.000940832
0.000529689
0.000105556
0.00114765
0.000874559
0.000490526
0.000102104
0.00106467
0.000806289
0.000451404
9.86206e-05
0.000976835
0.000736051
0.000412219
9.50668e-05
0.000884363
0.000663825
0.000372845
9.1403e-05
0.000787607
0.000589685
0.00033324
8.75842e-05
0.000687281
0.000514044
0.000293584
8.35583e-05
0.00058488
0.000437993
0.000254411
7.92609e-05
0.000483186
0.000363635
0.000216695
7.46044e-05
0.000386656
0.00029419
0.000181795
6.94538e-05
0.000300779
0.000233621
0.000151393
6.3583e-05
0.000230843
0.000185494
0.000127443
5.05079e-05
0.000172514
0.000146953
0.000107867
4.7433e-05
5.21858e-05
4.57507e-05
4.42321e-05
3.03643e-05
0.000279202
0.0011633
0.00152882
0.00198383
0.00232892
0.00264409
0.00291776
0.00313213
0.00328105
0.00336751
0.00340203
0.00339565
0.00336028
0.00330725
0.00324594
0.00318297
0.00312185
0.00306338
0.00300637
0.00294854
0.00288732
0.00282033
0.00274575
0.00266234
0.00256942
0.00246675
0.00235451
0.0022331
0.00210282
0.00196329
0.00181547
0.00165989
0.0014964
0.00132444
0.00114024
0.000939784
0.000285495
0.00128657
0.00167575
0.00214333
0.00250389
0.00280783
0.00305682
0.00323656
0.00334453
0.00338783
0.00337986
0.00333694
0.00327409
0.00320419
0.00313642
0.00307548
0.00302188
0.00297312
0.00292513
0.00287364
0.00281502
0.00274674
0.00266736
0.00257637
0.00247377
0.00235997
0.00223552
0.00210121
0.00195716
0.00180129
0.00163594
0.00146171
0.00127888
0.00108825
0.000893255
0.000676993
0.000290832
0.0014085
0.00182871
0.00230773
0.00265076
0.00293763
0.00315762
0.00330081
0.00336891
0.0033735
0.00333203
0.00326399
0.00318696
0.00311347
0.00304999
0.00299701
0.00295056
0.00290442
0.00285218
0.00278865
0.00271052
0.00261623
0.00250573
0.00238019
0.00224088
0.00209019
0.00192945
0.00176347
0.00159711
0.00143832
0.00128301
0.00113099
0.000985032
0.000844042
0.00072691
0.000646097
0.000295121
0.00146746
0.0019932
0.00244246
0.00277091
0.00303681
0.00322581
0.00333298
0.00336458
0.00333674
0.00327092
0.00318871
0.00310753
0.00303719
0.00297929
0.00292895
0.00287793
0.00281761
0.00274114
0.00264441
0.00252621
0.00238788
0.00223296
0.0020668
0.00189617
0.00173182
0.0015863
0.00145621
0.00133929
0.00123662
0.00114859
0.00107613
0.00102887
0.00100906
0.00100267
0.0010195
0.000298502
0.00151666
0.00214452
0.00254752
0.00286655
0.00310931
0.00326728
0.00334077
0.00334076
0.00328766
0.00320599
0.00311798
0.00303828
0.00297165
0.00291389
0.00285544
0.00278558
0.00269566
0.00258072
0.0024403
0.00227852
0.00210374
0.00192845
0.00176982
0.00164665
0.00155581
0.00149115
0.00144898
0.00142611
0.00142088
0.0014326
0.00145222
0.00148239
0.00152611
0.00159724
0.00154571
0.000301062
0.00155599
0.00222418
0.0026334
0.00294035
0.0031593
0.0032877
0.00333113
0.00330523
0.00323408
0.00314395
0.00305557
0.00297899
0.0029127
0.00284727
0.00277041
0.00267166
0.0025451
0.00239113
0.00221763
0.00203966
0.00187919
0.00176537
0.00171177
0.00170165
0.00172241
0.00176395
0.00181878
0.00187441
0.00193014
0.00199576
0.00207474
0.00212334
0.00211068
0.00206223
0.00187277
0.000302876
0.00158611
0.00228894
0.00270185
0.00299525
0.00319092
0.0032923
0.00331011
0.00326434
0.00318193
0.00308924
0.00300358
0.00292913
0.00285855
0.00277877
0.00267758
0.00254788
0.00239055
0.00221729
0.00205024
0.00192161
0.00186924
0.00189551
0.00197095
0.00207235
0.00217746
0.00227674
0.00237643
0.00247794
0.00256488
0.00260556
0.00262903
0.00259684
0.00248736
0.00231061
0.00203673
0.000304012
0.00160779
0.00234017
0.00275484
0.0030342
0.00320806
0.00328572
0.0032828
0.00322317
0.00313557
0.00304482
0.00296333
0.00288908
0.00281018
0.00271265
0.00258747
0.00243479
0.00226867
0.00211749
0.00202182
0.00202371
0.0021228
0.00227155
0.00242845
0.00258596
0.00273048
0.00285777
0.00294928
0.00301863
0.0030509
0.00302234
0.00295651
0.0028457
0.00267975
0.00245065
0.00214003
0.00030454
0.0016219
0.00237929
0.0027944
0.00306007
0.00321424
0.00327194
0.00325336
0.00318563
0.00309815
0.00301268
0.00293589
0.00286011
0.00277086
0.00265622
0.00251393
0.00235698
0.00221729
0.00214137
0.00217462
0.00232556
0.00252772
0.00274312
0.00294936
0.00311176
0.00323861
0.00332885
0.00336208
0.00335497
0.00331267
0.00323469
0.00312566
0.00298116
0.00279208
0.00254536
0.00222195
0.000304526
0.00162929
0.00240771
0.00282254
0.00307547
0.00321253
0.00325427
0.00322505
0.0031546
0.00307177
0.00299412
0.00292228
0.00284409
0.00274484
0.00261787
0.0024713
0.00233589
0.00226149
0.00230015
0.00246802
0.00271237
0.00298232
0.00321887
0.0034083
0.00352618
0.00359154
0.00361
0.00358623
0.00353156
0.00345177
0.00334844
0.00322126
0.00306512
0.00287006
0.00262063
0.00229526
0.000304032
0.00163081
0.00242683
0.00284113
0.00308273
0.00320555
0.00323538
0.00320035
0.00313205
0.0030577
0.00298983
0.00292329
0.00284289
0.00273616
0.00260459
0.00247035
0.00238245
0.00239956
0.00255404
0.0028136
0.00311638
0.0033975
0.00359934
0.00372722
0.0037891
0.0037994
0.00377011
0.00371115
0.00363038
0.00353192
0.00341673
0.00328298
0.00312483
0.00293144
0.00268571
0.00236337
0.00030312
0.00162731
0.00243797
0.00285189
0.00308387
0.00319543
0.0032173
0.00318097
0.00311911
0.0030564
0.00299985
0.00293907
0.00285763
0.00274763
0.00262084
0.00251512
0.00249229
0.00260295
0.00284188
0.0031591
0.00347165
0.00371011
0.00386088
0.00393718
0.00395392
0.00392665
0.00386846
0.0037885
0.00369266
0.00358399
0.00346303
0.00332747
0.00317117
0.00298263
0.00274341
0.00242667
0.000301848
0.00161956
0.00244235
0.00285631
0.00308058
0.00318386
0.00320154
0.00316795
0.00311617
0.00306749
0.00302308
0.00296814
0.00288757
0.00278001
0.00266737
0.00260187
0.00264824
0.00283456
0.00312531
0.00346086
0.0037438
0.00393592
0.00404288
0.00408041
0.00406536
0.00401357
0.00393685
0.00384301
0.00373699
0.00362147
0.00349698
0.00336129
0.00320817
0.00302569
0.0027943
0.00248461
0.00030027
0.00160829
0.00244109
0.00285572
0.00307426
0.00317214
0.00318906
0.00316174
0.00312289
0.00308951
0.0030564
0.00287062
0.00286138
0.00283064
0.00274057
0.00272087
0.00282874
0.00306526
0.00338725
0.00371045
0.00395252
0.00410487
0.00417763
0.00418666
0.00414948
0.00408059
0.00399033
0.00388567
0.00377123
0.00364982
0.00352231
0.0033868
0.00323719
0.00306111
0.00283908
0.00253969
0.000298433
0.00159414
0.00243518
0.00285123
0.00306602
0.00316121
0.00318047
0.0031623
0.00313815
0.00311935
0.00284181
0.00269665
0.00272664
0.00286922
0.00283425
0.00286058
0.00301672
0.00328533
0.00361648
0.0039137
0.00411994
0.00423949
0.00428519
0.00427313
0.00421951
0.0041372
0.0040355
0.003921
0.00379842
0.00367104
0.00354027
0.00340476
0.00325856
0.00309056
0.00287905
0.00259073
0.000296385
0.00157771
0.00242547
0.00284376
0.00305672
0.00315172
0.00317597
0.0031691
0.00316009
0.00297823
0.00267095
0.00257882
0.00263062
0.00278962
0.00294148
0.00301078
0.00320133
0.00349037
0.00381706
0.00408516
0.00426007
0.00435276
0.00437729
0.00434877
0.00428167
0.00418751
0.00407495
0.00395057
0.00381948
0.0036856
0.0035511
0.00341554
0.00327391
0.00311375
0.00291306
0.00263676
0.000294163
0.0015595
0.00241271
0.00283407
0.00304702
0.00314407
0.00317551
0.0031813
0.00318651
0.00279878
0.00255432
0.00250053
0.00256878
0.0027357
0.00301777
0.00316451
0.00337892
0.00368206
0.00399641
0.00423442
0.00438224
0.00445296
0.00446029
0.0044179
0.00433862
0.00423299
0.00410939
0.00397464
0.00383436
0.00369336
0.00355542
0.00342014
0.00328229
0.00312976
0.00294019
0.00267689
0.000291804
0.00153995
0.00239754
0.00282277
0.00303738
0.00313846
0.00317879
0.00319765
0.00309946
0.00267127
0.00247573
0.00244926
0.00253383
0.00271145
0.003014
0.00331798
0.00355207
0.00385919
0.00415518
0.00436767
0.00449268
0.00454499
0.00453749
0.00448239
0.00439122
0.00427384
0.00413861
0.00399282
0.0038426
0.00369522
0.00355342
0.00341745
0.00328283
0.00313777
0.00295964
0.00271029
0.000289339
0.00151944
0.00238048
0.00281035
0.00302815
0.00313494
0.00318535
0.00321689
0.0029542
0.00258199
0.00242379
0.00241912
0.00251842
0.00270957
0.00303135
0.00346846
0.00372038
0.00402616
0.00430105
0.00449036
0.00459548
0.00463155
0.00461037
0.00454283
0.00443942
0.0043096
0.00416193
0.00400446
0.00384543
0.00369057
0.00354388
0.0034065
0.00327467
0.00313698
0.0029706
0.0027361
0.000286795
0.00149829
0.002362
0.00279719
0.00301954
0.00313343
0.00319468
0.00323809
0.00284669
0.00252016
0.00239174
0.00240615
0.00251823
0.00272356
0.00306911
0.00359342
0.00388521
0.00418638
0.00443825
0.0046059
0.004693
0.00471397
0.00467941
0.00459905
0.00448261
0.00433942
0.00417915
0.00401064
0.00384139
0.00367805
0.00352569
0.00338636
0.00325702
0.00312662
0.00297226
0.00275341
0.000284196
0.00147675
0.00234245
0.00278358
0.00301167
0.00313376
0.00320621
0.00326037
0.00276972
0.00247874
0.00237567
0.00240677
0.00252989
0.002749
0.0031183
0.00366859
0.00404508
0.00433639
0.00456799
0.00471594
0.00478632
0.00479265
0.0047444
0.00465043
0.00451988
0.00436355
0.00419058
0.00400965
0.00382906
0.00365642
0.0034978
0.00335614
0.00322907
0.00310593
0.00296379
0.00276125
0.000281561
0.00145505
0.00232216
0.00276974
0.00300459
0.00313569
0.00321918
0.00317929
0.00271515
0.00245358
0.00237208
0.00241774
0.00255082
0.00278284
0.00317425
0.00374853
0.00420007
0.00447832
0.00469136
0.00482126
0.00487574
0.00486735
0.00480469
0.00469603
0.00455182
0.00438155
0.0041945
0.00399994
0.00380704
0.00362442
0.00345913
0.00331494
0.00319006
0.00307417
0.00294435
0.0027586
0.000278907
0.00143337
0.00230137
0.00275585
0.00299829
0.00313896
0.00323309
0.00310706
0.00267744
0.00244048
0.00237798
0.00243657
0.00257919
0.00282361
0.00323418
0.00383353
0.00434873
0.00461326
0.00480892
0.00492203
0.00496098
0.00493743
0.00485956
0.00473643
0.00457738
0.00439179
0.00418932
0.00397997
0.0037739
0.00358077
0.00340858
0.00326185
0.00313923
0.0030306
0.00291307
0.0027443
0.000276249
0.00141183
0.0022803
0.00274202
0.00299275
0.00314335
0.00324757
0.00305427
0.00265268
0.00243704
0.00239142
0.00246148
0.00261353
0.00286983
0.00329606
0.00391904
0.00448926
0.00474135
0.0049209
0.00501803
0.00504144
0.00500225
0.00490911
0.00477043
0.00459513
0.00439272
0.00417343
0.00394817
0.00372815
0.00352413
0.00334503
0.00319598
0.00307585
0.00297444
0.00286888
0.00270874
0.000273597
0.00139056
0.0022591
0.00272834
0.00298791
0.00314861
0.00326239
0.00301651
0.00263803
0.00244168
0.00241095
0.00249126
0.00265267
0.00292026
0.00335977
0.00400297
0.00462292
0.00486293
0.00502722
0.00510875
0.0051163
0.00506148
0.00495232
0.00479675
0.00460358
0.00438272
0.00414517
0.00390288
0.00366825
0.00345313
0.00326735
0.00311642
0.0029991
0.0029047
0.00268111
0.00244975
0.000270962
0.00136965
0.00223793
0.00271488
0.00298369
0.00315456
0.00327736
0.00299023
0.00263147
0.00245287
0.00243532
0.00252489
0.00269537
0.00297356
0.00342553
0.00408562
0.00474948
0.00497803
0.00512758
0.00519301
0.00518516
0.00511436
0.00498806
0.00481399
0.00460117
0.00436011
0.00410281
0.00384242
0.00359264
0.00336649
0.00317454
0.00302243
0.00290834
0.00270639
0.00243524
0.00222959
0.000268352
0.00134917
0.00221689
0.00270168
0.00298002
0.00316103
0.00329234
0.00297303
0.00263148
0.00246924
0.00246343
0.00256155
0.00274068
0.00302921
0.00349263
0.00416627
0.00486922
0.00508637
0.00522026
0.00527068
0.00524751
0.00515995
0.00501507
0.00482067
0.00458622
0.0043231
0.00404452
0.00376508
0.00349986
0.00326308
0.00306589
0.00291369
0.00280336
0.00247217
0.00222579
0.00205699
0.00026577
0.00132916
0.00219607
0.00268875
0.00297684
0.00316788
0.00330727
0.00296311
0.00263684
0.00248963
0.00249443
0.00260052
0.00278802
0.00308657
0.00356043
0.00424419
0.0049816
0.00518613
0.00530572
0.00534162
0.00530271
0.00519719
0.005032
0.00481519
0.00455697
0.00426985
0.00396852
0.00366923
0.00338866
0.00314215
0.0029412
0.00279059
0.00258524
0.00226333
0.00204513
0.00191408
0.000263222
0.00130963
0.00217554
0.00267613
0.00297407
0.00317501
0.00332207
0.00295905
0.00264651
0.00251308
0.00252754
0.00264121
0.00283689
0.003145
0.00362796
0.00431898
0.00508285
0.00527809
0.00538419
0.00540553
0.00534998
0.00522496
0.0050374
0.00479589
0.00451161
0.00419849
0.00387304
0.00355345
0.00325815
0.00300352
0.00280103
0.00265425
0.00237193
0.00207483
0.00188757
0.00179538
0.000260717
0.0012906
0.00215534
0.00266382
0.00297169
0.00318234
0.00333677
0.0029597
0.00265955
0.00253861
0.00256193
0.00268298
0.00288683
0.00320431
0.00369589
0.00439032
0.00514696
0.00536295
0.00545576
0.00546199
0.00538848
0.00524204
0.00502979
0.00476107
0.0044483
0.00410724
0.00375654
0.0034167
0.00310805
0.00284785
0.00264695
0.00250703
0.00217737
0.00190589
0.00175378
0.00169974
0.000258255
0.00127211
0.00213553
0.00265187
0.00296977
0.00318991
0.00335116
0.00296401
0.00267523
0.0025656
0.00259714
0.00272541
0.00293758
0.00326443
0.0037635
0.00445818
0.00520393
0.00544113
0.00552036
0.00551045
0.00541726
0.00524717
0.00500764
0.004709
0.00436529
0.00399445
0.00361779
0.00325851
0.00293897
0.00267692
0.00248178
0.00235234
0.00199665
0.00175743
0.00164408
0.00162802
0.000255839
0.00125418
0.00211627
0.00264043
0.00296811
0.00319746
0.00336484
0.00297129
0.00269298
0.0025936
0.00263286
0.00276828
0.00298892
0.00332517
0.00383068
0.00452239
0.0052552
0.00551272
0.00557774
0.00555026
0.00543533
0.00523903
0.00496939
0.00463802
0.00426096
0.00385882
0.00345613
0.00307926
0.00275266
0.00249384
0.00230964
0.00216243
0.00182902
0.00163121
0.00155944
0.00158176
0.00025347
0.00123706
0.00209743
0.00262919
0.00296661
0.00320491
0.00336354
0.00298092
0.00271241
0.00262227
0.00266887
0.00281143
0.0030407
0.00338627
0.00389709
0.00458265
0.0052996
0.00557783
0.00562753
0.00558069
0.00544163
0.00521632
0.00491357
0.00454661
0.00413395
0.00369951
0.00327169
0.00288051
0.00255233
0.00230328
0.00213583
0.00196635
0.00167723
0.00152977
0.00150278
0.00156547
0.000251176
0.00122017
0.00207887
0.00261818
0.00296526
0.00321225
0.00336383
0.00299235
0.002733
0.00265134
0.00270497
0.00285473
0.0030928
0.00344753
0.0039625
0.00463912
0.00533718
0.00563635
0.00566924
0.00560091
0.00543507
0.00517774
0.00483877
0.00443346
0.00398336
0.0035164
0.00306567
0.00266526
0.00234284
0.00211181
0.00196656
0.00177231
0.00154636
0.00145684
0.00147888
0.00158916
0.000248952
0.00120359
0.00206066
0.00260742
0.00296404
0.00321948
0.00336579
0.00300511
0.00275446
0.00268064
0.00274107
0.00289812
0.00314517
0.00350889
0.00402699
0.00469238
0.00536848
0.00568797
0.00570228
0.00561006
0.00541455
0.00512205
0.00474378
0.00429761
0.00380885
0.00331034
0.00284068
0.00243819
0.00213092
0.00192444
0.00180723
0.00159608
0.00144155
0.00141506
0.00148966
0.00164929
0.000246793
0.00118737
0.00204284
0.00259694
0.00296295
0.0032266
0.00336893
0.00301879
0.00277659
0.00271008
0.00277712
0.00294162
0.00319785
0.00357048
0.00409096
0.00474341
0.00539429
0.00573222
0.00572591
0.0056072
0.005379
0.00504812
0.00462763
0.00413863
0.00361099
0.00308345
0.00260099
0.00220556
0.00192224
0.00174886
0.00166341
0.00144336
0.00136785
0.00140798
0.00153485
0.00173556
0.000244695
0.00117159
0.00202547
0.00258676
0.002962
0.00323364
0.00337287
0.00303311
0.00279919
0.00273958
0.00281314
0.00298529
0.00325093
0.00363244
0.00415484
0.0047932
0.00541535
0.00576848
0.00573934
0.0055914
0.0053274
0.00495503
0.00448978
0.00395678
0.00339142
0.00283948
0.00235278
0.00197579
0.00172683
0.00159146
0.00145966
0.00132594
0.00133412
0.00143762
0.00160761
0.0018106
0.000242654
0.00115628
0.00200857
0.00257691
0.00296119
0.00324063
0.0033774
0.00304788
0.00282209
0.00276909
0.00284915
0.00302918
0.00330447
0.00369482
0.00421852
0.00484149
0.0054315
0.00579602
0.00574172
0.00556173
0.00525884
0.00484208
0.0043302
0.00375331
0.00315329
0.00258408
0.00210416
0.00175793
0.00155117
0.00145585
0.00129731
0.00125917
0.00134257
0.00149509
0.00168266
0.00177607
0.000240668
0.00114147
0.0019922
0.00256741
0.00296055
0.0032476
0.00338238
0.00306293
0.00284516
0.00279861
0.00288521
0.00307334
0.00335843
0.00375732
0.00428121
0.00488702
0.00544021
0.00577719
0.00573218
0.00551733
0.00517254
0.00470894
0.00414962
0.0035307
0.00290151
0.00232491
0.00186511
0.00156054
0.00140006
0.001326
0.0012004
0.00124404
0.00138547
0.00156089
0.00171925
0.0017457
0.000238734
0.00112719
0.00197638
0.00255829
0.00296008
0.00325458
0.00338775
0.00307819
0.00286835
0.00282815
0.00292139
0.00311782
0.00341274
0.00381962
0.00434181
0.00492659
0.00543565
0.00571169
0.00571015
0.00545743
0.00506785
0.00455565
0.0039497
0.00329305
0.00264302
0.00207143
0.00164516
0.00139025
0.00127555
0.00119298
0.00115911
0.00127092
0.00144854
0.00161968
0.00170777
0.00171783
0.000236851
0.00111345
0.00196114
0.00254957
0.00295982
0.00326161
0.00339349
0.00309361
0.00289164
0.0028578
0.00295783
0.00316279
0.00346757
0.00388178
0.00440001
0.00495859
0.00541632
0.00562228
0.00556332
0.00533871
0.0049442
0.0043827
0.00373332
0.00304636
0.0023868
0.00183443
0.00145334
0.00125107
0.00117693
0.00112804
0.00116346
0.00132524
0.00151493
0.00163429
0.00169769
0.00169028
0.000235016
0.00110027
0.00194651
0.00254128
0.00295979
0.00326872
0.00339964
0.00310923
0.00291509
0.00288772
0.0029948
0.00320864
0.0035235
0.00394462
0.00445708
0.00498521
0.00538458
0.00551813
0.00538112
0.00508578
0.00466531
0.00418388
0.00350481
0.00279871
0.00214335
0.00162451
0.0012959
0.00114309
0.0011008
0.00111098
0.0011978
0.0013761
0.00152661
0.00163631
0.00168502
0.00166047
0.000233228
0.00108766
0.00193252
0.00253345
0.00296002
0.00327597
0.00340631
0.00312513
0.00293884
0.00291815
0.0030327
0.00325599
0.00358143
0.00400944
0.004515
0.00501046
0.00534897
0.0054085
0.00519968
0.00483991
0.00436782
0.00385956
0.00327077
0.00256018
0.0019237
0.00144945
0.00117449
0.00106275
0.00104211
0.00108996
0.00120921
0.00137496
0.00153069
0.00163133
0.00166519
0.00162481
0.000231487
0.00107562
0.00191919
0.00252611
0.00296054
0.0032834
0.00341362
0.00314146
0.00296308
0.0029494
0.00307199
0.00330548
0.0036422
0.00407726
0.00457494
0.00503627
0.00531401
0.00530108
0.00502434
0.00460836
0.00409722
0.0035711
0.00304308
0.0023422
0.0017375
0.00131284
0.00108648
0.00100474
0.000995949
0.00105359
0.00118959
0.00136835
0.00152319
0.00161244
0.00163357
0.00158027
0.00022979
0.00106416
0.00190654
0.00251927
0.00296139
0.00329104
0.00342173
0.0031584
0.00298802
0.00298178
0.0031131
0.00335765
0.00370634
0.00414832
0.00463675
0.0050621
0.00527909
0.00519604
0.0048544
0.00438659
0.00384712
0.00331958
0.00283244
0.00215488
0.00159119
0.00121576
0.00102684
0.000963562
0.000958307
0.00101893
0.00116459
0.00134579
0.00149546
0.0015773
0.00158957
0.00152657
0.000228138
0.00105328
0.00189458
0.00251297
0.00296259
0.00329894
0.00343078
0.0031761
0.00301388
0.00301559
0.0031564
0.00341283
0.00377393
0.00422225
0.00469939
0.00508653
0.00524271
0.0050922
0.0046891
0.00417571
0.00361926
0.00309954
0.00264768
0.00200527
0.0014865
0.00115444
0.000989258
0.000934246
0.000926388
0.000982071
0.00112378
0.00130351
0.00144994
0.00152708
0.00153333
0.00146371
0.000226529
0.00104297
0.00188333
0.00250723
0.00296417
0.00330714
0.00344092
0.00319475
0.00304084
0.00305104
0.00320211
0.00347113
0.00384481
0.00429835
0.00476169
0.00510844
0.00520416
0.00498888
0.00453072
0.0039862
0.00341869
0.00291123
0.00249288
0.00189216
0.00141783
0.00112008
0.00096764
0.000913092
0.000897398
0.000939322
0.00106994
0.00124492
0.00138869
0.00146296
0.00146537
0.00139195
0.000224963
0.00103323
0.00187279
0.00250207
0.00296617
0.00331568
0.00345225
0.00321447
0.00306906
0.00308831
0.00325037
0.00353254
0.00391862
0.00437585
0.00482274
0.00512723
0.00516304
0.00489121
0.00439163
0.00382545
0.00318938
0.00271542
0.00237188
0.00181456
0.00137753
0.00110148
0.000953028
0.00089545
0.000870296
0.000892953
0.0010049
0.00117164
0.00131301
0.00138597
0.00138631
0.00131164
0.00022344
0.00102406
0.00186299
0.0024975
0.00296862
0.00332461
0.00346488
0.00323536
0.00309866
0.00312753
0.00330126
0.00359697
0.00399499
0.0044541
0.00488201
0.00514263
0.00512326
0.00480561
0.00427537
0.00367925
0.00300327
0.00253624
0.00228601
0.00176932
0.00136135
0.0010943
0.000943704
0.000880566
0.000845997
0.000846108
0.000931079
0.00108493
0.0012238
0.00129696
0.00129682
0.00122322
0.000221959
0.00101545
0.00185391
0.00249355
0.00297154
0.00333396
0.00347883
0.00325752
0.00312974
0.00316878
0.00335477
0.00366423
0.00407346
0.00453255
0.00493923
0.00515579
0.00508946
0.00473621
0.00418572
0.00353872
0.00286379
0.00239904
0.00214928
0.0017526
0.00136739
0.00109843
0.000939867
0.000868324
0.000825481
0.000802907
0.00085294
0.000986567
0.00112193
0.00119672
0.00119759
0.00112716
0.00022052
0.00100738
0.00184556
0.00249023
0.00297495