/*--------------------------------*- C++ -*----------------------------------*\
| =========                 |                                                 |
| \\      /  F ield         | OpenFOAM: The Open Source CFD Toolbox           |
|  \\    /   O peration     | Version:  v2012                                 |
|   \\  /    A nd           | Website:  www.openfoam.com                      |
|    \\/     M anipulation  |                                                 |
\*---------------------------------------------------------------------------*/
FoamFile
{
    version     2.0;
    format      ascii;
    class       volScalarField;
    location    "623";
    object      omega;
}
// * * * * * * * * * * * * * * * * * * * * * * * * * * * * * * * * * * * * * //

dimensions      [0 0 -1 0 0 0 0];


internalField   nonuniform List<scalar> 
6108
(
96.4636
100.256
104.389
108.915
113.9
119.422
125.583
132.51
140.372
149.392
159.873
172.239
187.101
205.365
228.433
258.574
299.66
358.719
449.451
600.886
42.976
44.8138
46.8312
49.0554
51.5201
54.2669
57.3477
60.8282
64.7924
69.3488
74.6393
80.8525
88.2413
97.1496
108.046
121.568
138.543
159.913
186.175
214.93
33.556
35.0728
36.7405
38.5821
40.6259
42.9064
45.4667
48.3603
51.6552
55.4381
59.8213
64.9521
71.0267
78.3104
87.1691
98.119
111.91
129.68
153.294
186.254
30.4557
31.8737
33.4337
35.1577
37.0724
39.2105
41.6126
44.3294
47.4254
50.983
55.1098
59.9484
65.6914
72.6052
81.0683
91.6362
105.158
122.997
147.48
182.885
29.3675
30.7533
32.2784
33.9643
35.8375
37.9303
40.2829
42.9457
45.9828
49.477
53.5368
58.3075
63.9876
70.8554
79.3125
89.9583
103.722
122.101
147.603
184.547
29.3644
30.7511
32.2768
33.9632
35.8367
37.9298
40.2825
42.9455
45.9827
49.4769
53.5368
58.3075
63.9876
70.8554
79.3125
89.9583
103.722
122.101
147.603
184.547
30.4448
31.8661
33.4282
35.1538
37.0697
39.2087
41.6114
44.3286
47.4248
50.9826
55.1096
59.9482
65.6913
72.6051
81.0682
91.6362
105.158
122.997
147.48
182.885
33.5303
35.0556
36.7284
38.5739
40.6204
42.9028
45.4642
48.3587
51.6541
55.4373
59.8208
64.9518
71.0265
78.3102
87.169
98.1189
111.91
129.68
153.294
186.254
42.924
44.7773
46.807
49.0387
51.5087
54.2592
57.3426
60.8248
64.7902
69.3473
74.6383
80.8518
88.2409
97.1493
108.046
121.568
138.543
159.913
186.175
214.93
96.5241
100.297
104.418
108.936
113.914
119.432
125.59
132.515
140.375
149.394
159.874
172.241
187.102
205.366
228.433
258.574
299.66
358.719
449.451
600.886
83.9341
86.7328
89.7357
92.9691
37.0211
38.3326
39.7528
41.2953
28.6575
29.7342
30.9015
32.1709
25.8811
26.8862
27.9761
29.1616
24.8952
25.8786
26.9441
28.1028
24.8773
25.8666
26.9366
28.0981
25.7963
26.8308
27.9429
29.1429
28.2988
29.497
30.7644
32.1052
34.4825
36.6981
38.7613
40.8287
51.9292
59.4948
69.0798
81.3546
13.8428
13.0322
13.1484
14.9409
20.3834
24.7465
28.2388
31.1736
33.6492
35.8594
37.8895
39.7869
41.5823
43.2975
44.9485
46.5484
48.1077
49.6358
51.1412
52.6318
54.1155
55.6
57.0931
58.6027
60.1368
61.7038
63.3123
64.9715
66.6907
68.4798
70.3492
72.31
74.3738
76.5535
78.8629
81.3173
14.7055
9.7498
12.2119
17.495
21.241
23.1862
24.0791
24.5445
24.7768
24.8745
24.9174
24.9337
24.9399
24.9481
24.9682
25.0086
25.0764
25.1781
25.3187
25.5027
25.7333
26.0129
26.343
26.7248
27.1595
27.6479
28.1908
28.7891
29.4441
30.1571
30.9298
31.7651
32.6662
33.6367
34.6816
35.8073
18.1639
11.6139
14.7961
18.166
20.0061
20.6883
20.7922
20.6542
20.3803
20.0566
19.7425
19.46
19.221
19.0321
18.8967
18.817
18.7935
18.8258
18.9129
19.0531
19.2444
19.4848
19.7724
20.1054
20.4825
20.9027
21.3657
21.8715
22.4208
23.0147
23.6551
24.3443
25.0853
25.882
26.7389
27.6618
22.1624
13.6044
15.716
17.5588
18.4183
18.605
18.4584
18.1463
17.7569
17.3667
17.0165
16.7224
16.4915
16.3258
16.2249
16.1868
16.2086
16.287
16.4182
16.5986
16.8248
17.0936
17.4024
17.7493
18.1327
18.5518
19.0064
19.497
20.0244
20.5902
21.1964
21.8458
22.5415
23.2877
24.0891
24.9513
25.8449
14.8103
15.8533
16.6927
17.0301
17.0084
16.7821
16.4419
16.0637
15.7092
15.4078
15.1706
15.0013
14.8992
14.8619
14.8859
14.9668
15.1005
15.2825
15.5086
15.7753
16.0792
16.4179
16.7895
17.1927
17.6271
18.0928
18.5904
19.1212
19.6869
20.2899
20.9328
21.6193
22.3534
23.14
23.985
28.5467
15.4749
15.6688
15.9227
15.9305
15.8064
15.5622
15.2473
14.9225
14.6339
14.4029
14.2376
14.1392
14.1063
14.1355
14.2231
14.3646
14.5555
14.7912
15.0677
15.381
15.7279
16.1061
16.5139
16.9502
17.4149
17.9085
18.4318
18.9864
19.5743
20.1975
20.859
21.5617
22.3095
23.107
23.9603
30.491
15.794
15.3641
15.2716
15.104
14.9002
14.6596
14.3887
14.129
13.9129
13.7559
13.6637
13.637
13.6741
13.7722
13.9278
14.1367
14.3947
14.6969
15.0387
15.416
15.825
16.2631
16.7284
17.2203
17.7389
18.2853
18.8617
19.4702
20.1139
20.7953
21.517
22.281
23.0884
23.9399
24.835
32.0862
15.885
15.0285
14.7296
14.471
14.2216
13.9816
13.7571
13.5618
13.4162
13.331
13.3105
13.3558
13.4664
13.6409
13.8768
14.171
14.5189
14.9154
15.3548
15.8313
16.3394
16.875
17.4349
18.0178
18.6239
19.2553
19.9161
20.6121
21.3515
22.1431
22.9957
23.9162
24.9094
25.9754
27.1263
33.4022
15.8541
14.7034
14.2798
13.9741
13.7056
13.4693
13.2814
13.144
13.0622
13.0432
13.0911
13.2084
13.3971
13.6581
13.9913
14.3946
14.8642
15.3943
15.9782
16.6088
17.2791
17.9832
18.7166
19.4762
20.2605
21.0701
21.9076
22.779
23.6955
24.6818
25.7753
27.0201
28.4797
30.2215
32.2547
34.4835
15.7755
14.4044
13.9036
13.5733
13.301
13.0772
12.9147
12.8232
12.7957
12.8346
12.9447
13.1312
13.3992
13.7529
14.1947
14.7239
15.3374
16.0297
16.7947
17.6269
18.5227
19.4815
20.506
21.6024
22.7806
24.054
25.4395
26.9575
28.6318
30.4907
32.5651
34.8844
37.7139
41.3283
45.9725
45.4994
45.304
40.8857
32.4274
20.6654
17.1907
13.3315
13.2642
8.33155
6.4116
5.40564
11.4645
3.9787
3.75356
4.48026
11.0711
3.00085
3.26688
4.411
11.0911
2.77829
3.2085
4.4894
11.2966
2.73773
3.23429
4.61188
11.6307
2.74884
3.27442
4.71518
12.0038
2.77679
3.31603
4.8027
12.4068
2.81251
3.35932
4.88551
12.839
2.85426
3.40715
4.97562
13.3067
2.90232
3.46244
5.07678
13.814
2.9555
3.51978
5.17669
14.3339
3.0122
3.57965
5.27672
14.8626
3.07276
3.64244
5.37717
15.3954
3.13729
3.70838
5.4782
15.9298
3.20576
3.77754
5.57977
16.4631
3.27808
3.84989
5.68171
16.9919
3.35403
3.92529
5.78363
17.5113
3.43336
4.0035
5.88501
18.0146
3.51579
4.08433
5.98533
18.4913
3.60105
4.16774
6.0845
18.9235
3.68884
4.25378
6.18252
19.2864
3.77903
4.34217
6.27568
19.5852
3.87149
4.43302
6.36364
19.8596
3.96163
4.51951
6.44598
20.1197
4.04185
4.59381
6.52663
20.3024
4.10966
4.65382
6.57971
20.4329
4.16327
4.69566
6.61119
20.4957
4.20101
4.719
6.62159
20.4596
4.21703
4.72341
6.61259
20.3379
4.20921
4.70801
6.58401
20.144
4.17552
4.67304
6.53947
19.8827
4.11696
4.61971
6.48533
19.557
4.04133
4.55443
6.42349
19.1766
3.95614
4.48576
6.35776
18.7503
3.86914
4.4187
6.29157
18.288
3.78688
4.35697
6.22766
17.7995
3.713
4.30311
6.16776
17.2935
3.64975
4.25846
6.11253
16.7763
3.5983
4.22351
6.06185
16.2535
3.55948
4.1987
6.01628
15.7289
3.53574
4.18832
5.98925
15.2167
3.529
4.19794
5.99393
14.7377
3.53795
4.2249
6.02002
14.2799
3.56136
4.26661
6.05803
13.8348
3.59812
4.32088
6.10302
13.3959
3.64716
4.38583
6.15121
12.9579
3.70752
4.4599
6.19995
12.5158
3.77835
4.54188
6.24757
12.0648
3.85898
4.63098
6.29299
11.5998
3.94904
4.72685
6.33546
11.1152
4.04863
4.8297
6.37402
10.6042
4.15858
4.93994
6.40651
10.0589
4.27993
5.05712
6.4274
9.46791
4.41143
5.17559
6.42226
8.81426
4.54771
5.27747
6.35929
8.06921
4.67398
5.34001
6.18977
7.17181
4.88341
5.38167
5.83889
6.01964
9.1665
8.76608
7.76943
4.5635
35.4332
15.6745
14.1193
13.5676
13.2248
12.9577
12.7509
12.6138
12.5527
12.5691
12.6572
12.8223
13.0727
13.4163
13.8593
14.4037
15.0469
15.782
16.5997
17.491
18.4489
19.4704
20.5566
21.7133
22.9497
24.2785
25.7145
27.2742
28.972
30.8163
32.8202
34.983
37.2815
39.6464
41.9246
43.9878
36.2318
15.5716
13.8611
13.2765
12.9286
12.6702
12.4793
12.3616
12.3224
12.3633
12.4852
12.6904
12.9878
13.3859
13.8878
14.489
15.1778
15.9375
16.7502
17.6
18.4754
19.3694
20.2783
21.2002
22.1344
23.0767
24.0153
24.9315
25.7795
26.4757
27.0099
27.3159
27.295
26.8477
25.8549
23.6847
36.9091
15.4707
13.6229
13.0164
12.668
12.418
12.2391
12.1331
12.1051
12.158
12.2949
12.5209
12.8417
13.2605
13.771
14.3565
14.9925
15.6522
16.3116
16.9521
17.5604
18.128
18.6475
19.1049
19.4833
19.7479
19.8218
19.7191
19.4531
19.0553
18.4413
17.5576
16.3486
14.7181
12.8193
10.5466
37.4533
15.3609
13.3969
12.7762
12.4291
12.1852
12.0126
11.9099
11.8827
11.9356
12.0727
12.2987
12.6149
13.0132
13.4734
13.9648
14.453
14.9071
15.3032
15.6251
15.8624
16.0018
16.0218
15.8836
15.5168
14.9609
14.3242
13.5881
12.7425
11.8084
10.7688
9.62824
8.43219
7.19585
6.06316
4.99346
37.8825
15.2464
13.1791
12.5482
12.2024
11.9609
11.7884
11.6811
11.6457
11.6885
11.8134
12.0209
12.3036
12.6395
12.9931
13.3235
13.593
13.7727
13.8454
13.7979
13.6133
13.2619
12.695
11.8649
10.9794
10.0826
9.19696
8.33067
7.4947
6.69806
5.94038
5.2576
4.63269
4.0451
3.45254
3.15064
38.2074
15.13
12.967
12.3268
11.9811
11.7383
11.5603
11.4421
11.3921
11.4177
11.5206
11.6939
11.9168
12.1527
12.3549
12.4782
12.4875
12.3623
12.0888
11.6475
11.0093
10.1455
9.06776
8.06251
7.15254
6.35882
5.6763
5.08961
4.59917
4.17423
3.77616
3.39148
3.08135
2.86352
2.68002
2.65417
38.4375
15.0122
12.7594
12.1091
11.7616
11.514
11.3262
11.1934
11.1256
11.1303
11.2043
11.3299
11.4715
11.579
11.6006
11.4932
11.2301
10.7975
10.1769
9.3542
8.33439
7.17628
6.1726
5.3667
4.73388
4.24989
3.87201
3.55086
3.2634
3.01656
2.83234
2.66468
2.54358
2.48075
2.46389
2.5328
38.5818
14.8934
12.5555
11.8937
11.5424
11.2874
11.0877
10.9391
10.8534
10.8363
10.8769
10.9445
10.9887
10.9512
10.7798
10.4394
9.91486
9.19327
8.27345
7.19043
6.04616
5.07851
4.36667
3.86545
3.49066
3.2054
2.97896
2.80839
2.66414
2.54978
2.4768
2.42088
2.38603
2.38016
2.41347
2.51621
38.6488
14.774
12.3551
11.6802
11.3235
11.06
10.8479
10.6851
10.584
10.5464
10.5512
10.5535
10.4912
10.3024
9.94092
9.3845
8.62791
7.67687
6.58347
5.47161
4.51595
3.85039
3.38995
3.06277
2.84411
2.68572
2.56756
2.49229
2.43927
2.40103
2.37604
2.36007
2.35607
2.37177
2.42151
2.53519
38.6469
14.6546
12.1585
11.4691
11.1062
10.8342
10.6115
10.438
10.3257
10.2702
10.2383
10.1714
9.99963
9.66308
9.12634
8.38556
7.44974
6.36949
5.26741
4.31241
3.62452
3.15284
2.84992
2.65172
2.53468
2.46139
2.41704
2.39307
2.37953
2.37159
2.36773
2.36794
2.37573
2.39905
2.45329
2.56903
38.5843
14.5357
11.9662
11.2614
10.892
10.6129
10.3829
10.2037
10.0854
10.0151
9.9468
9.8101
9.53157
9.05827
8.3716
7.48804
6.44442
5.34743
4.36038
3.61194
3.10036
2.77075
2.58087
2.4727
2.41589
2.38957
2.38099
2.38185
2.38644
2.39193
2.39764
2.4047
2.41693
2.4424
2.49678
2.61132
38.4686
14.4179
11.7789
11.0582
10.6829
10.399
10.166
9.98686
9.86786
9.7861
9.6827
9.478
9.09962
8.50593
7.70029
6.7219
5.64443
4.6156
3.78623
3.19212
2.81019
2.58884
2.4695
2.41076
2.38876
2.38759
2.39676
2.40981
2.42303
2.43474
2.44487
2.45493
2.46881
2.4945
2.5477
2.66019
38.3072
14.3019
11.5974
10.8607
10.4807
10.195
9.96383
9.79068
9.67601
9.58584
9.44917
9.18068
8.71115
8.01516
7.12394
6.09879
5.04623
4.12419
3.43205
2.95635
2.67157
2.51616
2.43914
2.40943
2.4074
2.41969
2.4378
2.45678
2.47403
2.4886
2.5008
2.51232
2.52696
2.55248
2.60449
2.71521
38.1068
14.188
11.4223
10.6699
10.2868
10.0027
9.77846
9.61679
9.51089
9.41511
9.24889
8.92158
8.36819
7.58903
6.64584
5.61373
4.62154
3.81041
3.21798
2.83411
2.6174
2.50359
2.45315
2.44117
2.45053
2.46992
2.49238
2.51398
2.53286
2.54858
2.56177
2.57418
2.58946
2.61512
2.66615
2.77436
37.8738
14.0766
11.2541
10.4867
10.1022
9.82331
9.61083
9.4656
9.37228
9.27435
9.083
8.7002
8.07096
7.22785
6.25949
5.24983
4.33208
3.61347
3.10106
2.78459
2.61229
2.52637
2.49351
2.49235
2.50808
2.53099
2.55519
2.5775
2.59662
2.61254
2.62615
2.63926
2.65538
2.68128
2.73151
2.83753
37.6137
13.968
11.0931
10.3117
9.92768
9.65743
9.46111
9.33648
9.25904
9.16241
8.9483
8.51421
7.82049
6.92867
5.95226
4.98483
4.14342
3.49645
3.047
2.78021
2.63898
2.5722
2.55084
2.55617
2.5752
2.59943
2.62376
2.64556
2.66402
2.67949
2.69315
2.70687
2.72382
2.7504
2.80036
2.90464
37.3318
13.8622
10.9396
10.1451
9.7636
9.50514
9.32874
9.22796
9.16898
9.07676
8.84161
8.36131
7.6135
6.68568
5.71421
4.79602
4.02603
3.43411
3.03463
2.80631
2.68758
2.63405
2.62012
2.62913
2.64949
2.6736
2.69694
2.71734
2.73443
2.74894
2.76225
2.77641
2.79445
2.82214
2.87244
2.97553
37.0324
13.7592
10.7935
9.98716
9.60996
9.3661
9.21258
9.13803
9.09961
9.01404
8.75982
8.23858
7.44582
6.49416
5.53366
4.66369
3.95432
3.41311
3.05535
2.85465
2.75219
2.70785
2.69861
2.70941
2.72972
2.75264
2.77411
2.79237
2.80748
2.8204
2.83307
2.84765
2.86693
2.89618
2.94744
3.04997
36.7196
13.659
10.6548
9.83781
9.46656
9.23961
9.11111
9.06434
9.0485
8.97095
8.69972
8.14261
7.31301
6.34637
5.40095
4.5768
3.91612
3.4195
3.09808
2.91921
2.82899
2.79111
2.78467
2.79591
2.81515
2.83603
2.85488
2.87031
2.88266
2.89365
2.90544
2.92031
2.94096
2.97214
3.02499
3.12767
36.3967
13.5614
10.5233
9.69682
9.33295
9.12474
9.02262
9.00435
9.01288
8.94439
8.65811
8.06986
7.21095
6.23623
5.30928
4.52579
3.90262
3.44537
3.15687
2.9962
2.91553
2.88224
2.87726
2.88791
2.90524
2.92332
2.93876
2.9506
2.95983
2.9685
2.9791
2.9941
3.01616
3.04961
3.10469
3.20828
36.0669
13.4662
10.3985
9.56387
9.20858
9.02037
8.9453
8.95572
8.98998
8.93144
8.63184
8.01708
7.13601
6.15882
5.25235
4.49885
3.91051
3.49076
3.22917
3.08335
3.01021
2.98012
2.97557
2.98481
2.9995
3.0139
3.02525
3.03307
3.03871
3.04462
3.05369
3.06862
3.09211
3.12816
3.18611
3.29141
35.7325
13.3731
10.2802
9.43855
9.09277
8.92529
8.87735
8.91667
8.97738
8.92932
8.61813
7.98147
7.08512
6.11001
5.22395
4.49218
3.93596
3.55135
3.31258
3.17904
3.11183
3.08386
3.07893
3.08604
3.09716
3.10728
3.11404
3.11733
3.11886
3.12157
3.12876
3.14343
3.16836
3.20732
3.26881
3.37671
35.3957
13.2818
10.168
9.32039
8.98483
8.83837
8.81715
8.88553
8.97295
8.9357
8.61466
7.9607
7.05568
6.08624
5.21724
4.50444
3.97829
3.62446
3.40517
3.28198
3.21946
3.19272
3.18665
3.19077
3.19772
3.20302
3.20467
3.20287
3.19976
3.19879
3.20373
3.21794
3.24433
3.28654
3.35226
3.46371
35.0583
13.1923
10.0613
9.20891
8.88405
8.75851
8.76328
8.86061
8.97482
8.94852
8.61945
7.95279
7.04554
6.08463
5.22661
4.53412
4.03739
3.70877
3.50587
3.39125
3.33227
3.30602
3.29797
3.29838
3.30059
3.30054
3.29651
3.28904
3.28072
3.27558
3.27791
3.29141
3.31923
3.36494
3.43565
3.55194
34.7218
13.1041
9.95979
9.10362
8.78973
8.6847
8.71454
8.8405
8.98136
8.96599
8.63085
7.95601
7.05275
6.10264
5.25202
4.57941
4.1102
3.80291
3.61374
3.50603
3.44984
3.42301
3.41208
3.40814
3.40507
3.39914
3.38887
3.37511
3.36098
3.35113
3.35041
3.36285
3.39182
3.44107
3.51799
3.64098
34.3874
13.0171
9.86303
9.00402
8.70118
8.61603
8.66991
8.824
8.99118
8.9866
8.64747
7.96862
7.07319
6.13431
5.29515
4.64268
4.19551
3.90578
3.72789
3.62632
3.57132
3.54275
3.52815
3.51928
3.51043
3.49807
3.48095
3.46027
3.43969
3.42456
3.42027
3.43111
3.46069
3.51408
3.59857
3.72863
34.0562
12.9311
9.77061
8.90964
8.6178
8.55173
8.62853
8.81013
9.00312
9.00917
8.66817
7.98902
7.10342
6.17863
5.35478
4.72066
4.29157
4.01652
3.8489
3.75099
3.69562
3.66428
3.64533
3.63101
3.61587
3.59655
3.57196
3.54367
3.51597
3.49496
3.48654
3.49515
3.52488
3.58282
3.67451
3.80975
33.7284
12.8458
9.68214
8.82002
8.53901
8.49112
8.58971
8.79804
9.0162
9.03277
8.69203
8.01596
7.14242
6.23413
5.42773
4.81052
4.39762
4.13586
3.97519
3.8788
3.82167
3.78669
3.76278
3.74253
3.72064
3.69381
3.6611
3.62448
3.58898
3.56151
3.54838
3.55419
3.58408
3.64602
3.74346
3.88176
33.4052
12.7613
9.59729
8.73476
8.46431
8.43364
8.55288
8.78708
9.02959
9.0566
8.71821
8.04836
7.18919
6.29919
5.51112
4.91217
4.51398
4.26192
4.10531
4.00852
3.94844
3.90905
3.87967
3.85308
3.824
3.78912
3.74761
3.70195
3.65801
3.62356
3.60528
3.60786
3.63765
3.70246
3.80371
3.9424
33.0872
12.6775
9.51567
8.65348
8.39328
8.37887
8.51783
8.77686
9.04225
9.07901
8.74506
8.08488
7.24261
6.37324
5.60664
5.02529
4.63838
4.39297
4.23779
4.13893
4.07488
4.03045
3.99521
3.96195
3.92529
3.88181
3.83084
3.77548
3.7226
3.68085
3.65712
3.65608
3.68493
3.75096
3.85306
3.98888
32.7748
12.5942
9.437
8.57588
8.32555
8.32672
8.48427
8.76677
9.05348
9.09983
8.77235
8.12463
7.30186
6.45565
5.71154
5.14666
4.76852
4.52749
4.37109
4.26876
4.19995
4.15005
4.10867
4.06851
4.02393
3.97135
3.91029
3.8447
3.78267
3.73353
3.70418
3.69905
3.72561
3.79008
3.88888
4.01756
32.4682
12.5112
9.36084
8.50162
8.26109
8.27685
8.45188
8.7565
9.06304
9.11906
8.79999
8.16721
7.36614
6.54474
5.8233
5.27347
4.90173
4.6621
4.5034
4.39672
4.32266
4.26705
4.21943
4.17224
4.11948
4.05732
3.98565
3.90959
3.8386
3.78229
3.74712
3.73697
3.75887
3.8175
3.90767
4.02418
32.1675
12.4275
9.28763
8.43093
8.1996
8.22897
8.42046
8.74583
9.07081
9.13678
8.82795
8.21227
7.43461
6.63891
5.93966
5.4033
5.03586
4.7955
4.63335
4.52169
4.44212
4.38075
4.32695
4.27274
4.21161
4.13949
4.05687
3.97057
3.89137
3.82846
3.78671
3.76925
3.78256
3.82954
3.90482
4.00229
31.8764
12.3474
9.21756
8.36347
8.14081
8.18283
8.38986
8.7346
9.07677
9.15313
8.85623
8.25945
7.50642
6.73662
6.05856
5.53399
5.169
4.92626
4.75969
4.64267
4.55756
4.49061
4.43085
4.36975
4.30016
4.21781
4.12426
4.02857
3.94266
3.87477
3.82305
3.79409
3.79266
3.82097
3.87555
3.95157
31.5942
12.2703
9.1503
8.29895
8.08444
8.13827
8.35992
8.72273
9.08098
9.16824
8.88482
8.30838
7.58067
6.83634
6.17806
5.66352
5.29938
5.05293
4.8813
4.75879
4.66834
4.59618
4.53087
4.46314
4.38512
4.29247
4.1885
4.08514
3.99506
3.91736
3.85351
3.80693
3.7829
3.78566
3.81576
3.87502
31.3202
12.1956
9.08555
8.23713
8.0303
8.09513
8.33056
8.71019
9.08356
9.18229
8.91369
8.35867
7.65644
6.93658
6.29629
5.79003
5.42536
5.17421
4.99718
4.8693
4.77394
4.69716
4.62688
4.55296
4.46666
4.36396
4.25079
4.14203
4.04652
3.95969
3.87597
3.80164
3.74569
3.7182
3.72161
3.77801
31.0539
12.1226
9.02305
8.17776
7.97817
8.05329
8.30171
8.697
9.08466
9.19543
8.94281
8.40988
7.73276
7.03589
6.41154
5.91185
5.54553
5.28897
5.10645
4.97358
4.87398
4.79337
4.71891
4.6394
4.5452
4.43322
4.31297
4.20283
4.10368
3.99948
3.884
3.76887
3.67351
3.61844
3.6097
3.67376
30.7949
12.0508
8.96254
8.12064
7.92791
8.01266
8.27333
8.68321
9.08447
9.20782
8.97208
8.46153
7.8087
7.13291
6.52234
6.02759
5.65879
5.39631
5.20844
5.07117
4.96819
4.88476
4.80709
4.72285
4.6214
4.50169
4.37808
4.27064
4.16443
4.0305
3.86727
3.69947
3.56457
3.49299
3.48902
3.57065
30.5429
11.9798
8.90379
8.06556
7.87935
7.97315
8.2454
8.66892
9.08317
9.21961
9.00142
8.51314
7.88332
7.22644
6.62742
6.13619
5.7645
5.49582
5.30263
5.16172
5.05641
4.97135
4.89173
4.80389
4.69631
4.57156
4.45063
4.34816
4.22612
4.04496
3.8168
3.59154
3.42665
3.35442
3.36942
3.47393
30.2974
11.9094
8.84657
8.01235
7.83236
7.93471
8.21791
8.6542
9.08098
9.23093
9.03069
8.56419
7.95571
7.31534
6.72572
6.23679
5.86206
5.58725
5.38873
5.24494
5.13847
5.05322
4.97322
4.88338
4.77146
4.6458
4.53372
4.43641
4.28441
4.03599
3.73069
3.45371
3.27474
3.21489
3.25763
3.38762
30.0584
11.8392
8.79069
7.96084
7.78685
7.89728
8.19087
8.63918
9.0781
9.24188
9.05971
8.61409
8.02489
7.39843
6.81603
6.32827
5.95044
5.67017
5.46678
5.32057
5.21416
5.13041
5.05206
4.96247
4.849
4.72857
4.63117
4.53532
4.33519
4.00112
3.61707
3.30229
3.12556
3.08712
3.1592
3.31431
29.8256
11.769
8.73598
7.91089
7.74269
7.86081
8.16429
8.62396
9.0747
9.2525
9.08819
8.66212
8.08972
7.4743
6.89686
6.40909
6.02787
5.7428
5.53583
5.3884
5.2834
5.20282
5.12869
5.04249
4.9314
4.82469
4.74587
4.64403
4.37795
3.9473
3.4916
3.15461
2.99113
2.97993
3.07837
3.2559
29.5987
11.6987
8.68226
7.86234
7.6998
7.82525
8.13819
8.60866
9.07092
9.26278
9.11576
8.70742
8.14889
7.54139
6.96655
6.47751
6.09253
5.80318
5.59359
5.44662
5.34538
5.27057
5.20352
5.12488
5.02139
4.93674
4.87878
4.76235
4.41845
3.8892
3.37125
3.02353
2.88005
2.89685
3.01827
3.21471
29.3777
11.628
8.62939
7.81508
7.65809
7.79059
8.11257
8.59335
9.06688
9.27261
9.14191
8.74897
8.201
7.59819
7.02367
6.53215
6.14315
5.84988
5.63855
5.49357
5.39855
5.3331
5.27721
5.21116
5.12136
5.06459
5.02982
4.89341
4.4684
3.84408
3.27174
2.92221
2.80233
2.84318
2.97982
3.19111
29.1624
11.5569
8.57725
7.76899
7.61748
7.75676
8.08744
8.5781
9.06263
9.28181
9.16602
8.78571
8.24476
7.6435
7.06726
6.57226
6.17906
5.88218
5.67003
5.52872
5.44257
5.39022
5.35051
5.30265
5.23325
5.21172
5.19898
5.04362
4.54307
3.83109
3.21145
2.86681
2.76187
2.81452
2.96062
3.18392
28.9527
11.4853
8.5257
7.72395
7.57789
7.72375
8.06281
8.56297
9.05816
9.29013
9.18742
8.81659
8.27907
7.67652
7.09688
6.59759
6.19984
5.8997
5.68773
5.55195
5.47762
5.44231
5.42385
5.39992
5.3574
5.37699
5.38493
5.21951
4.65909
3.87743
3.21876
2.8567
2.75043
2.80682
2.95866
3.19199
28.7485
11.4131
8.47467
7.67988
7.53926
7.69151
8.03868
8.54799
9.05344
9.29725
9.20543
8.84069
8.30312
7.69685
7.1125
6.60817
6.20538
5.902
5.69184
5.56393
5.50378
5.48903
5.49655
5.50249
5.49383
5.55584
5.58527
5.43069
4.84954
4.00884
3.28529
2.88375
2.7631
2.81715
2.97224
3.2142
28.5498
11.3403
8.42406
7.63668
7.50153
7.66003
8.01505
8.53316
9.04838
9.30283
9.21934
8.8572
8.31642
7.70442
7.11429
6.60407
6.19521
5.89079
5.68359
5.56379
5.51973
5.52856
5.56624
5.60812
5.63858
5.74285
5.80569
5.69118
5.12141
4.22816
3.41595
2.94815
2.7982
2.8437
2.99998
3.24953
28.3565
11.267
8.37381
7.59428
7.46463
7.62926
7.99191
8.51847
9.04287
9.30648
9.22853
8.86551
8.3187
7.69939
7.10253
6.58509
6.17156
5.86735
5.66245
5.55027
5.52231
5.557
5.62846
5.71146
5.78705
5.92921
6.04276
5.99974
5.48174
4.5506
3.62645
3.05647
2.85672
2.88563
3.04086
3.2971
28.1685
11.193
8.32388
7.55261
7.42853
7.59917
7.96923
8.50389
9.03674
9.30778
9.23239
8.86519
8.30996
7.6821
7.07753
6.5521
6.13683
5.83176
5.62798
5.52201
5.50833
5.56913
5.67672
5.80388
5.93364
6.10986
6.28685
6.3443
5.93162
4.99455
3.94153
3.22312
2.94254
2.94289
3.09409
3.35605
27.9858
11.1185
8.27423
7.51162
7.39316
7.56975
7.94702
8.48938
9.02981
9.30634
9.23044
8.85597
8.29037
7.65288
7.03883
6.50896
6.09143
5.78429
5.57995
5.47764
5.47522
5.55979
5.70283
5.87384
6.05882
6.27316
6.52302
6.70101
6.45596
5.57688
4.39789
3.47599
3.0641
3.01656
3.15904
3.42566
27.8084
11.0437
8.22485
7.47127
7.3585
7.54096
7.92523
8.47486
9.02188
9.30175
9.22227
8.83778
8.26026
7.6123
6.9886
6.45663
6.03614
5.72541
5.51886
5.41696
5.4211
5.52395
5.69844
5.911
6.14543
6.41108
6.73571
7.03611
7.01803
6.30209
5.03772
3.8594
3.23897
3.1102
3.23537
3.50528
27.6363
10.9685
8.17572
7.43151
7.3245
7.51279
7.90385
8.46027
9.01272
9.29363
9.20758
8.8107
8.22003
7.56007
6.93037
6.39614
5.97204
5.656
5.44594
5.34086
5.34538
5.45784
5.65586
5.90699
6.19042
6.50712
6.90187
7.3167
7.55691
7.13581
5.90727
4.45085
3.50657
3.23321
3.32328
3.59454
27.4692
10.893
8.12685
7.39231
7.29115
7.48521
7.88284
8.44549
9.0021
9.28165
9.18622
8.775
8.17033
7.49803
6.86527
6.32869
5.90067
5.57902
5.36312
5.25078
5.24887
5.36042
5.56977
5.85006
6.17935
6.55577
6.99715
7.51632
7.99795
7.98713
7.01298
5.34561
3.94587
3.3966
3.42332
3.69349
27.3074
10.8175
8.07825
7.35367
7.25842
7.45819
7.86216
8.43043
8.98976
9.26551
9.15813
8.73102
8.11142
7.42891
6.79421
6.25539
5.82324
5.49552
5.2715
5.14811
5.13351
5.23361
5.43974
5.73357
6.09637
6.52194
7.02269
7.62344
8.2811
8.71676
8.26468
6.63456
4.71877
3.65774
3.542
3.80312
27.1506
10.742
8.02996
7.31555
7.22629
7.43172
7.84176
8.41496
8.97546
9.245
9.1234
8.6792
8.04381
7.35483
6.71828
6.1772
5.74063
5.40594
5.17098
5.03458
5.00233
5.08193
5.2703
5.55862
5.93727
6.3977
6.94618
7.60306
8.38768
9.18596
9.44187
8.31204
6.01447
4.14214
3.69536
3.9263
26.9989
10.6666
7.98202
7.27797
7.19474
7.40577
7.82161
8.39897
8.95899
9.21995
9.08219
8.62015
7.96945
7.2763
6.6383
6.09486
5.65363
5.31141
5.06376
4.9123
4.8588
4.91148
5.07043
5.33391
5.70237
6.17592
6.75811
7.46651
8.32775
9.33084
10.238
10.1337
8.03336
5.20513
3.93767
4.06289
26.8523
10.5916
7.93447
7.24091
7.16376
7.38033
7.80163
8.3823
8.94013
9.19026
9.03474
8.5539
7.89059
7.19419
6.55499
6.00875
5.56331
5.21365
4.95271
4.78323
4.7061
4.72807
4.85018
5.07428
5.40782
5.86175
6.44502
7.17562
8.0807
9.19088
10.467
11.4865
10.7154
7.30851
4.39323
4.22396
26.7106
10.5172
7.88735
7.2044
7.13337
7.35539
7.78179
8.36483
8.9187
9.15598
8.9815
8.48155
7.80848
7.10949
6.46914
5.91968
5.47098
5.11375
4.83847
4.64798
4.54698
4.53668
4.61835
4.79466
5.07567
5.4792
6.02688
6.74213
7.65397
8.79854
10.2236
11.8857
13.0182
11.0485
5.98959
4.52519
26.574
10.4436
7.84092
7.16865
7.10374
7.3311
7.76219
8.34661
8.89484
9.11761
8.92357
8.40522
7.72452
7.02353
6.38168
5.82949
5.37776
5.0132
4.7234
4.51026
4.38443
4.34169
4.38216
4.50762
4.7273
5.05971
5.53262
6.18252
7.05187
8.1801
9.62716
11.4704
13.7588
15.1491
10.8253
7.20922
26.4695
10.386
7.80441
7.1405
7.08038
7.31186
7.74637
8.33112
8.87336
9.08273
8.8713
8.3384
7.65143
6.94836
6.30418
5.75029
5.29588
4.92458
4.62175
4.3885
4.23663
4.16231
4.16288
4.23853
4.39593
4.65021
5.02667
5.56422
6.31642
7.34409
8.71352
10.5252
12.9398
16.2371
18.3661
9.53676
26.3681
10.3292
7.76847
7.11294
7.05761
7.29311
7.73071
8.31507
8.85031
9.04568
8.81718
8.27184
7.58004
6.87591
6.23038
5.67627
5.22026
4.84385
4.53067
4.2817
4.10923
4.01203
3.98348
4.02303
4.13472
4.32947
4.62744
5.0622
5.68466
6.5626
7.77855
9.4341
11.6739
14.7181
18.8678
15.1889
26.2699
10.2735
7.73274
7.08554
7.03498
7.27441
7.71476
8.29794
8.82493
9.00524
8.75938
8.20263
7.50664
6.80186
6.15549
5.60164
5.14427
4.76336
4.44088
4.17785
3.98737
3.87142
3.81935
3.83013
3.90487
4.04992
4.27935
4.61805
5.10454
5.79822
6.78271
8.17815
10.1536
12.9468
16.9904
23.6407
25.894
22.878
19.2343
11.5382
12.2135
13.0823
14.071
13.7139
10.0319
11.6548
13.6706
15.5113
8.81851
10.6009
13.1585
16.8045
7.92233
9.73422
12.6217
17.7873
7.26364
9.03903
12.1117
18.6054
6.78407
8.50291
11.6771
19.3141
6.43241
8.09298
11.3203
19.9386
6.17092
7.77871
11.0321
20.496
5.97311
7.53578
10.8013
20.9986
5.82062
7.34585
10.6172
21.4561
5.70074
7.19546
10.4705
21.8764
5.60461
7.07479
10.3539
22.266
5.52603
6.97671
10.2613
22.6306
5.4606
6.89599
10.188
22.9749
5.40514
6.82875
10.1304
23.3029
5.35735
6.77211
10.0855
23.6183
5.31551
6.72388
10.051
23.9241
5.27832
6.68236
10.0251
24.2232
5.24475
6.64621
10.0064
24.518
5.21399
6.61439
9.99378
24.8108
5.18541
6.5861
9.98622
25.1038
5.15858
6.56077
9.98315
25.3991
5.13328
6.53804
9.98419
25.6986
5.10939
6.51772
9.98927
26.0044
5.08693
6.49981
9.99862
26.3187
5.06599
6.48441
10.0127
26.6437
5.0467
6.47171
10.0323
26.9821
5.02921
6.46199
10.0586
27.3369
5.01369
6.45555
10.0935
27.7117
5.00039
6.45269
10.1385
28.1107
4.98804
6.45064
10.1846
28.5213
4.97654
6.44919
10.2314
28.945
4.96606
6.44851
10.279
29.3821
4.95685
6.44884
10.3276
29.8341
4.94923
6.45053
10.3775
30.3022
4.94357
6.45398
10.429
30.7874
4.94037
6.4597
10.4826
31.2907
4.94026
6.46829
10.5386
31.8131
4.94405
6.48045
10.5978
32.3558
4.9528
6.4969
10.6607
32.92
4.96634
6.51837
10.7279
33.5069
4.9851
6.54585
10.8002
34.1181
5.00957
6.58063
10.8787
34.7551
5.0399
6.62422
10.9644
35.42
5.07541
6.67866
11.0581
36.1166
5.11692
6.7399
11.1605
36.8502
5.16443
6.80372
11.274
37.6265
5.21658
6.86774
11.4049
38.4532
5.27667
6.93497
11.5502
39.3463
5.35364
7.01504
11.6938
40.3257
5.45085
7.11058
11.8336
41.3984
5.57023
7.22423
11.9679
42.5568
5.71277
7.35744
12.0834
43.7443
5.87852
7.49714
12.0849
44.7841
6.07647
7.69436
12.1519
45.9833
6.3338
8.02928
12.4833
48.2594
6.54973
8.35489
12.982
50.5531
6.72886
8.59663
13.5179
53.3852
6.84215
8.76936
16.0115
56.3307
26.1501
10.2049
7.68837
7.05172
7.0072
7.25144
7.69474
8.27543
8.79092
8.95222
8.68626
8.11788
7.41855
6.7142
6.06808
5.51537
5.05706
4.67202
4.34053
4.06426
3.85862
3.72715
3.6581
3.64788
3.69458
3.80062
3.97489
4.23419
4.60425
5.12593
5.85899
6.89648
8.38513
10.5523
13.7957
18.9377
26.035
10.138
7.64464
7.01826
6.9797
7.22852
7.67416
8.25105
8.75323
8.89414
8.60835
8.02903
7.32675
6.62294
5.9772
5.42525
4.96567
4.57655
4.23679
3.94853
3.729
3.58234
3.50002
3.47234
3.49486
3.56678
3.6925
3.8799
4.14513
4.51016
5.00405
5.66369
6.53129
7.64752
9.0433
10.7304
25.9245
10.0729
7.60187
6.98544
6.95271
7.20585
7.65314
8.22495
8.71228
8.83233
8.52793
7.93918
7.23504
6.53252
5.88795
5.33714
4.87678
4.48449
4.13878
3.84239
3.61362
3.45676
3.36632
3.32732
3.33356
3.38222
3.47411
3.61355
3.81176
4.08331
4.44759
4.93006
5.56275
6.3831
7.41932
8.63996
25.8184
10.0095
7.56004
6.95325
6.92622
7.18338
7.63158
8.19702
8.66818
8.76717
8.44552
7.84883
7.14392
6.44345
5.80092
5.25165
4.79101
4.39646
4.04734
3.74687
3.51377
3.35263
3.25682
3.21115
3.20725
3.24069
3.30965
3.41802
3.5735
3.78667
4.07195
4.44893
4.94374
5.59062
6.42833
7.48479
25.7165
9.94801
7.51915
6.92173
6.90022
7.16105
7.6094
8.16718
8.6211
8.69907
8.36162
7.75848
7.05383
6.35621
5.71667
5.16936
4.70894
4.31309
3.96279
3.66223
3.4291
3.26741
3.1692
3.12037
3.11059
3.13382
3.18807
3.27634
3.40411
3.5793
3.81313
4.12132
4.52564
5.05634
5.75413
6.67459
25.6184
9.88832
7.47919
6.89087
6.87469
7.13881
7.58649
8.13538
8.57113
8.62844
8.27673
7.66859
6.96522
6.27128
5.63576
5.09081
4.6311
4.23458
3.88559
3.58885
3.35883
3.19908
3.10053
3.05095
3.03788
3.05467
3.09988
3.17536
3.28505
3.43512
3.63465
3.89673
4.2401
4.69197
5.29299
6.10839
25.5241
9.83047
7.44015
6.86069
6.8496
7.1166
7.56276
8.10154
8.51838
8.55569
8.19131
7.57958
6.87851
6.18911
5.55869
5.01656
4.55798
4.1614
3.81618
3.52631
3.30175
3.14574
3.04891
2.99917
2.98431
2.99766
3.03761
3.1051
3.20298
3.33619
3.51237
3.74282
4.04413
4.44135
4.97403
5.71015
25.4332
9.77445
7.40202
6.83118
6.82493
7.09435
7.53812
8.06565
8.463
8.48122
8.10578
7.49187
6.79409
6.11011
5.48588
4.94703
4.48994
4.09427
3.75446
3.47339
3.25621
3.10497
3.01075
2.96168
2.94624
2.95814
2.99529
3.0579
3.14801
3.26969
3.42952
3.63753
3.90881
4.26678
4.74969
5.42567
25.3456
9.72027
7.3648
6.80235
6.80064
7.072
7.5125
8.02773
8.4052
8.40542
8.02055
7.40581
6.71233
6.03461
5.41752
4.88242
4.42667
4.03366
3.70111
3.42969
3.22068
3.07464
2.98346
2.93562
2.92058
2.93227
2.96814
3.02781
3.11271
3.22625
3.37421
3.56568
3.81466
4.14332
4.58875
5.21842
25.2609
9.66781
7.32861
6.7742
6.77671
7.04945
7.48585
7.98782
8.34523
8.32869
7.93601
7.32177
6.63354
5.96289
5.35342
4.82271
4.36856
3.98042
3.65635
3.39448
3.19375
3.05297