/*--------------------------------*- C++ -*----------------------------------*\
| =========                 |                                                 |
| \\      /  F ield         | OpenFOAM: The Open Source CFD Toolbox           |
|  \\    /   O peration     | Version:  v2012                                 |
|   \\  /    A nd           | Website:  www.openfoam.com                      |
|    \\/     M anipulation  |                                                 |
\*---------------------------------------------------------------------------*/
FoamFile
{
    version     2.0;
    format      ascii;
    class       volScalarField;
    location    "623";
    object      p;
}
// * * * * * * * * * * * * * * * * * * * * * * * * * * * * * * * * * * * * * //

dimensions      [0 2 -2 0 0 0 0];


internalField   nonuniform List<scalar> 
6108
(
0.327321
0.327306
0.327366
0.327482
0.327635
0.327815
0.328013
0.328223
0.328442
0.328666
0.328892
0.329121
0.329351
0.329583
0.32982
0.330062
0.330315
0.33063
0.331149
0.331904
0.327311
0.3273
0.327366
0.327486
0.327644
0.327827
0.328029
0.328242
0.328465
0.328693
0.328925
0.32916
0.329397
0.329637
0.329882
0.330128
0.330374
0.330643
0.330956
0.331232
0.327194
0.327206
0.327291
0.327426
0.327595
0.327786
0.327993
0.328211
0.328436
0.328666
0.3289
0.329137
0.329376
0.329618
0.329863
0.330103
0.330336
0.330571
0.330773
0.330869
0.326993
0.327053
0.327176
0.32734
0.327528
0.327733
0.327949
0.328173
0.328401
0.328634
0.328869
0.329106
0.329345
0.329585
0.329825
0.330056
0.330279
0.330493
0.330659
0.330715
0.326728
0.326861
0.327042
0.327243
0.327457
0.327682
0.327911
0.328143
0.328378
0.328614
0.328851
0.32909
0.329329
0.329569
0.329806
0.330035
0.330253
0.330456
0.330606
0.33065
0.326408
0.326637
0.326896
0.327145
0.327392
0.327639
0.327883
0.328124
0.328365
0.328605
0.328846
0.329086
0.329327
0.329567
0.329805
0.330034
0.330253
0.330455
0.330605
0.330649
0.326048
0.326409
0.326758
0.327061
0.327342
0.32761
0.327867
0.328118
0.328365
0.32861
0.328853
0.329095
0.329338
0.329581
0.329822
0.330054
0.330278
0.330492
0.330658
0.330715
0.325737
0.326227
0.326659
0.327007
0.327316
0.327601
0.32787
0.328128
0.328381
0.32863
0.328876
0.329121
0.329365
0.329611
0.329858
0.3301
0.330334
0.33057
0.330772
0.330868
0.32561
0.326163
0.326629
0.326993
0.327315
0.327608
0.327883
0.328146
0.328401
0.32865
0.328897
0.329141
0.329385
0.329629
0.329876
0.330124
0.330372
0.330642
0.330955
0.331231
0.325893
0.326238
0.32662
0.326979
0.327299
0.327592
0.327865
0.328126
0.328378
0.328623
0.328864
0.329102
0.329339
0.329575
0.329815
0.330059
0.330313
0.330628
0.331148
0.331903
0.328737
0.328116
0.327694
0.32744
0.328747
0.328116
0.327685
0.327428
0.328556
0.327939
0.327522
0.327285
0.328173
0.327597
0.327215
0.327028
0.327625
0.32711
0.326778
0.326668
0.326953
0.326513
0.326209
0.326199
0.326186
0.325783
0.325417
0.325576
0.324993
0.324611
0.324288
0.324862
0.322815
0.323247
0.323682
0.323763
0.323855
0.325248
0.325324
0.318684
0.779165
0.777987
0.777299
0.777345
0.777221
0.77554
0.768854
0.754555
0.734342
0.710387
0.683957
0.656017
0.627339
0.598569
0.570254
0.54286
0.516771
0.492293
0.469648
0.448986
0.430383
0.413842
0.399304
0.386676
0.375826
0.366605
0.358848
0.352387
0.347049
0.342673
0.339123
0.336264
0.333973
0.332148
0.330708
0.329589
0.77862
0.777038
0.776835
0.777644
0.777913
0.775515
0.767027
0.751943
0.732258
0.708846
0.682869
0.655296
0.626908
0.598357
0.570199
0.54291
0.516884
0.492435
0.469798
0.449126
0.430501
0.413932
0.399367
0.386715
0.375847
0.366612
0.358847
0.352383
0.347047
0.34267
0.339123
0.336275
0.33399
0.332169
0.33073
0.329606
0.778918
0.777049
0.777003
0.7775
0.776311
0.771329
0.760876
0.745364
0.725919
0.703043
0.677681
0.650672
0.622765
0.594609
0.566775
0.539751
0.513949
0.489699
0.467247
0.446756
0.42831
0.41192
0.397537
0.385066
0.374376
0.365315
0.357715
0.351406
0.346216
0.341982
0.338559
0.335811
0.333613
0.331862
0.330475
0.329389
0.780922
0.778618
0.7777
0.776143
0.772147
0.764515
0.752638
0.73672
0.717232
0.694672
0.669778
0.643255
0.615792
0.588023
0.560522
0.533797
0.508277
0.484311
0.462156
0.441982
0.423874
0.407839
0.393824
0.381725
0.371403
0.362698
0.355438
0.349446
0.344549
0.340585
0.337404
0.334866
0.332843
0.331232
0.329952
0.328948
0.783994
0.78081
0.777867
0.773598
0.766754
0.756813
0.74349
0.726803
0.706968
0.684401
0.659678
0.633405
0.606212
0.578711
0.551479
0.525035
0.499828
0.476218
0.454474
0.434764
0.417166
0.401679
0.388232
0.376708
0.366954
0.358798
0.352057
0.346549
0.342095
0.338533
0.335712
0.333486
0.331724
0.330318
0.329195
0.328309
0.786479
0.78171
0.776412
0.769454
0.760044
0.748001
0.733137
0.715427
0.694991
0.67214
0.647328
0.621085
0.593991
0.56664
0.53961
0.513435
0.488578
0.465412
0.444205
0.425121
0.408221
0.393483
0.380815
0.370074
0.36109
0.353674
0.347633
0.342773
0.33891
0.335881
0.333535
0.331723
0.330303
0.329166
0.328244
0.327512
0.786688
0.780032
0.772638
0.76324
0.751584
0.737654
0.721292
0.702467
0.68126
0.657912
0.632795
0.606382
0.579221
0.551897
0.524997
0.499072
0.474601
0.451965
0.431427
0.413135
0.397124
0.383341
0.371661
0.361911
0.353893
0.347403
0.342234
0.338177
0.335041
0.332663
0.3309
0.32961
0.328628
0.327835
0.327164
0.326611
0.783516
0.775252
0.766177
0.75475
0.741216
0.725636
0.707865
0.687902
0.665813
0.641799
0.616186
0.589417
0.562026
0.534605
0.507763
0.482075
0.458036
0.436031
0.416308
0.398988
0.384067
0.371447
0.36096
0.352396
0.345526
0.340126
0.335975
0.332848
0.330556
0.328949
0.327889
0.327259
0.3268
0.326357
0.325887
0.325409
0.777239
0.767365
0.756933
0.743929
0.728872
0.711866
0.692796
0.671706
0.648667
0.623862
0.5976
0.570317
0.542558
0.514945
0.488122
0.462695
0.439177
0.417945
0.399224
0.383084
0.369469
0.358221
0.34912
0.341907
0.336319
0.332107
0.329041
0.326875
0.325365
0.32442
0.324017
0.324004
0.32395
0.323679
0.323334
0.322997
0.767764
0.756419
0.744961
0.730776
0.714505
0.696291
0.676054
0.653885
0.629869
0.604195
0.577176
0.549269
0.521061
0.493224
0.466455
0.441398
0.418576
0.398344
0.380875
0.366168
0.354087
0.344401
0.336823
0.33105
0.326787
0.323779
0.321806
0.320623
0.319953
0.319777
0.320044
0.32055
0.321162
0.321881
0.322715
0.323399
0.310061
0.310259
0.30794
0.297847
0.307927
0.307499
0.305765
0.302571
0.306982
0.306489
0.305444
0.304208
0.306446
0.305993
0.3054
0.304808
0.305981
0.305708
0.305352
0.305025
0.305654
0.30549
0.305259
0.305062
0.305374
0.305284
0.305137
0.30502
0.305113
0.305086
0.305006
0.304943
0.304871
0.304901
0.304879
0.304864
0.304651
0.304736
0.304768
0.304802
0.304459
0.304598
0.304685
0.304771
0.304297
0.304491
0.304637
0.304779
0.304166
0.304418
0.304629
0.304833
0.304067
0.304378
0.30466
0.304938
0.303998
0.304371
0.304731
0.305094
0.303953
0.30439
0.304837
0.305295
0.303927
0.304428
0.30497
0.305532
0.303907
0.304472
0.305117
0.30579
0.303879
0.304505
0.305259
0.306047
0.303827
0.304506
0.30537
0.30627
0.30373
0.30445
0.305422
0.306412
0.303571
0.304318
0.305393
0.30644
0.303323
0.304088
0.30528
0.30635
0.302928
0.303705
0.305031
0.306108
0.302374
0.303154
0.304571
0.305682
0.301677
0.302437
0.303859
0.305074
0.300778
0.301515
0.302908
0.304249
0.29962
0.30035
0.301713
0.303162
0.298198
0.298941
0.300285
0.301839
0.296525
0.297306
0.298653
0.300305
0.294628
0.295467
0.296816
0.298512
0.292562
0.293466
0.294794
0.29648
0.290405
0.291355
0.292635
0.294276
0.288231
0.289197
0.290411
0.291976
0.286105
0.287055
0.288202
0.28966
0.284094
0.285014
0.286079
0.287409
0.28226
0.283151
0.284114
0.285297
0.28067
0.281516
0.282362
0.283387
0.279357
0.280134
0.280857
0.281719
0.278316
0.279011
0.279616
0.280319
0.277532
0.27814
0.278633
0.2792
0.276985
0.277511
0.277901
0.278355
0.276659
0.277109
0.277411
0.277767
0.276535
0.27692
0.277149
0.277421
0.276595
0.276926
0.277103
0.277306
0.276824
0.277113
0.277254
0.27741
0.277204
0.277465
0.277587
0.277714
0.277721
0.277967
0.278089
0.278203
0.278359
0.278605
0.278747
0.278866
0.279104
0.279368
0.27955
0.279693
0.279944
0.280243
0.28049
0.280678
0.280866
0.28122
0.281559
0.281811
0.281857
0.282288
0.282748
0.28308
0.282905
0.283434
0.284039
0.284454
0.283993
0.284637
0.285395
0.285877
0.2851
0.28586
0.286743
0.287241
0.286182
0.287039
0.287968
0.288382
0.287153
0.288068
0.288899
0.289109
0.287889
0.288796
0.289376
0.289391
0.288186
0.289228
0.28955
0.289461
0.754252
0.741985
0.729872
0.714847
0.697623
0.678382
0.657096
0.633893
0.608886
0.582284
0.554436
0.525851
0.497189
0.469205
0.442666
0.418255
0.396486
0.377662
0.361861
0.348973
0.338747
0.330852
0.324928
0.320616
0.317588
0.315566
0.314309
0.313567
0.313125
0.312896
0.31278
0.312661
0.312553
0.312401
0.312011
0.311005
0.736756
0.72398
0.711602
0.696075
0.678156
0.658082
0.635887
0.61173
0.585764
0.558244
0.529582
0.500385
0.471426
0.443575
0.417681
0.394445
0.374331
0.357525
0.343955
0.333351
0.325328
0.319457
0.315316
0.312522
0.310748
0.309719
0.309208
0.309018
0.309025
0.309109
0.309199
0.309218
0.309204
0.309106
0.308828
0.308317
0.716304
0.703378
0.690967
0.675228
0.65686
0.636171
0.613247
0.588285
0.561487
0.533181
0.503884
0.474341
0.445478
0.418289
0.393676
0.372298
0.354484
0.340225
0.329247
0.321108
0.3153
0.311331
0.308762
0.307226
0.30643
0.306141
0.306181
0.30642
0.306751
0.307085
0.307372
0.307554
0.307671
0.307696
0.307512
0.307215
0.693704
0.680802
0.668477
0.652685
0.634093
0.612994
0.589534
0.563955
0.536525
0.507673
0.478066
0.448625
0.420437
0.394589
0.371959
0.353063
0.338005
0.326532
0.318163
0.312316
0.308424
0.305987
0.304608
0.303981
0.303875
0.304121
0.304569
0.30511
0.305663
0.306171
0.306601
0.306882
0.306986
0.307004
0.306935
0.306735
0.669553
0.656808
0.644638
0.62889
0.610274
0.58896
0.565178
0.539215
0.511427
0.482382
0.452926
0.424166
0.39732
0.373484
0.353407
0.337366
0.325192
0.3164
0.310349
0.306396
0.30398
0.302664
0.302126
0.302121
0.302467
0.30302
0.303663
0.30431
0.304906
0.305412
0.305809
0.306103
0.30628
0.306329
0.306277
0.306157
0.644342
0.631894
0.619919
0.60433
0.585846
0.564514
0.540644
0.514576
0.486778
0.457979
0.429217
0.401757
0.376871
0.355559
0.338343
0.325216
0.315752
0.309286
0.305107
0.302583
0.301221
0.300667
0.300651
0.300983
0.301521
0.302157
0.30282
0.303458
0.304041
0.304545
0.304957
0.305278
0.305515
0.305665
0.30573
0.305726
0.618554
0.606516
0.594807
0.579494
0.56127
0.540117
0.516408
0.490546
0.463129
0.435057
0.407538
0.381931
0.359463
0.340944
0.326616
0.3162
0.30907
0.304469
0.301688
0.300162
0.299483
0.299356
0.299584
0.300033
0.300608
0.301247
0.301905
0.302548
0.303151
0.303696
0.304171
0.304569
0.304891
0.305135
0.305298
0.305377
0.592654
0.581118
0.569764
0.554823
0.536986
0.516207
0.492912
0.467582
0.440948
0.414068
0.388269
0.364924
0.345122
0.329418
0.317778
0.309704
0.304449
0.301242
0.299428
0.29853
0.298221
0.298291
0.298612
0.299098
0.299691
0.300347
0.301031
0.301712
0.302367
0.302974
0.303521
0.303996
0.304392
0.304703
0.304927
0.305062
0.567062
0.556099
0.545177
0.530696
0.513379
0.493167
0.470538
0.446055
0.420576
0.395282
0.371558
0.350707
0.333609
0.320549
0.311256
0.305086
0.30125
0.299014
0.297811
0.297265
0.297143
0.297311
0.297685
0.298209
0.298838
0.299534
0.300264
0.300999
0.301712
0.302381
0.302986
0.303517
0.303963
0.30432
0.304588
0.30477
0.542136
0.531797
0.521372
0.507441
0.490774
0.471309
0.449578
0.426224
0.40221
0.378793
0.357351
0.339053
0.324536
0.313828
0.30648
0.301781
0.298957
0.297353
0.296513
0.296166
0.296156
0.296395
0.296824
0.297397
0.298074
0.29882
0.299602
0.300388
0.301151
0.301867
0.302516
0.303087
0.303572
0.303968
0.304276
0.304501
0.51817
0.508495
0.498622
0.485325
0.469425
0.450867
0.430232
0.408234
0.385908
0.364538
0.345442
0.329623
0.317467
0.308764
0.302961
0.299345
0.297208
0.296
0.295382
0.295166
0.295241
0.295548
0.296035
0.296662
0.29739
0.298183
0.29901
0.299838
0.30064
0.301394
0.302081
0.302689
0.303211
0.303644
0.303992
0.304261
0.495404
0.486418
0.47714
0.46455
0.449515
0.431994
0.41261
0.392127
0.371616
0.352341
0.335528
0.322027
0.31198
0.304942
0.300319
0.297469
0.295782
0.294828
0.294361
0.294243
0.294394
0.294767
0.295312
0.295988
0.296759
0.297592
0.298456
0.29932
0.300159
0.300949
0.301674
0.30232
0.302879
0.303351
0.303739
0.30405
0.474013
0.465729
0.457079
0.445253
0.431158
0.414769
0.396739
0.377859
0.359195
0.341945
0.327246
0.31591
0.307758
0.302058
0.298293
0.295962
0.29457
0.293787
0.293429
0.293391
0.293612
0.294044
0.294638
0.295355
0.296163
0.29703
0.297927
0.298826
0.299701
0.30053
0.301293
0.301978
0.302577
0.303088
0.303516
0.303871
0.454121
0.446539
0.438536
0.427513
0.414409
0.39921
0.382588
0.365333
0.348456
0.333066
0.320396
0.311074
0.304516
0.299883
0.296722
0.294722
0.29352
0.292855
0.292579
0.292608
0.292889
0.293368
0.294002
0.294753
0.295593
0.296491
0.297421
0.298355
0.299268
0.300136
0.30094
0.301666
0.302305
0.302857
0.303326
0.303723
0.435797
0.428905
0.421555
0.411358
0.39927
0.385287
0.370085
0.354424
0.339222
0.325658
0.314997
0.30729
0.301888
0.298153
0.295492
0.293695
0.29261
0.292025
0.291811
0.291894
0.29222
0.292737
0.293403
0.294184
0.295051
0.295979
0.296941
0.29791
0.29886
0.299768
0.300614
0.301382
0.302063
0.302655
0.303165
0.303605
0.419066
0.412843
0.40614
0.396774
0.385705
0.372936
0.359134
0.345015
0.331407
0.319716
0.310823
0.304245
0.299662
0.296644
0.294455
0.292837
0.291825
0.291292
0.291122
0.291246
0.291607
0.292153
0.292844
0.293649
0.294542
0.295497
0.296489
0.297491
0.298479
0.299427
0.300315
0.301125
0.301848
0.302481
0.30303
0.303513
0.403913
0.398331
0.392259
0.383714
0.373647
0.362067
0.349616
0.336945
0.324938
0.314995
0.307442
0.301744
0.297818
0.295293
0.293511
0.292106
0.291146
0.29065
0.290514
0.290668
0.291053
0.29162
0.29233
0.293155
0.294069
0.295048
0.296068
0.297102
0.298125
0.299112
0.300041
0.300893
0.301657
0.30233
0.302918
0.303439
0.390292
0.385319
0.379853
0.372105
0.363008
0.352573
0.341405
0.33006
0.31963
0.311195
0.304622
0.299685
0.296311
0.294125
0.292651
0.291454
0.290557
0.290092
0.289984
0.290161
0.290563
0.291144
0.291867
0.292707
0.293637
0.294637
0.29568
0.296743
0.297798
0.298821
0.299789
0.300681
0.301485
0.302195
0.302819
0.303376
0.378136
0.373733
0.368842
0.361859
0.353685
0.344334
0.33438
0.324276
0.315258
0.30805
0.302276
0.297995
0.295073
0.293154
0.291879
0.290853
0.29005
0.289619
0.289535
0.289729
0.290142
0.29073
0.291462
0.29231
0.293252
0.294265
0.295327
0.296412
0.297495
0.298551
0.299554
0.300483
0.301323
0.302068
0.302724
0.303313
0.367367
0.363488
0.359134
0.352876
0.345568
0.337227
0.328398
0.319478
0.311657
0.305412
0.30034
0.29661
0.294051
0.292345
0.2912
0.290327
0.289633
0.289234
0.289171
0.289376
0.289795
0.290385
0.291118
0.291969
0.292915
0.293936
0.295008
0.296109
0.297213
0.298295
0.299327
0.300289
0.301162
0.301938
0.302621
0.303233
0.357892
0.354488
0.350633
0.345049
0.338545
0.331123
0.323282
0.315494
0.308731
0.303232
0.298762
0.295483
0.293214
0.291681
0.29064
0.289892
0.2893
0.288938
0.288896
0.289109
0.289527
0.290114
0.290842
0.291687
0.292629
0.293648
0.294722
0.29583
0.296946
0.298045
0.2991
0.300088
0.300988
0.301791
0.302494
0.303121
0.349609
0.346634
0.343236
0.338275
0.332507
0.325923
0.318943
0.312188
0.306356
0.301454
0.297494
0.294585
0.292549
0.291159
0.290212
0.289559
0.289049
0.288732
0.288712
0.28893
0.289345
0.289922
0.290636
0.291467
0.292395
0.2934
0.294465
0.295568
0.296685
0.297791
0.298859
0.299864
0.300787
0.301612
0.302333
0.302964
0.342414
0.339825
0.336843
0.332452
0.327355
0.32154
0.315348
0.309464
0.304389
0.300014
0.296496
0.293893
0.292048
0.290773
0.289908
0.289333
0.288895
0.288626
0.288625
0.288846
0.289252
0.289812
0.290505
0.291311
0.292211
0.293191
0.294232
0.295316
0.296419
0.297518
0.298587
0.2996
0.300541
0.301393
0.302133
0.302749
0.336207
0.333963
0.331358
0.327486
0.322994
0.317876
0.312407
0.307243
0.302781
0.298876
0.295737
0.293388
0.291703
0.290523
0.289727
0.289221
0.288851
0.288627
0.288642
0.288862
0.289252
0.289788
0.290449
0.291218
0.292078
0.293016
0.294017
0.295063
0.296134
0.297209
0.298262
0.299271
0.300229
0.301115
0.301859
0.302425
0.330889
0.328952
0.326688
0.323285
0.319335
0.314836
0.310014
0.30546
0.301509
0.298017
0.295197
0.293062
0.291509
0.290411
0.289675
0.28923
0.288924
0.288741
0.288769
0.288982
0.289351
0.289853
0.290471
0.291188
0.291991
0.29287
0.29381
0.294797
0.295814
0.296841
0.297856
0.298843
0.299807
0.300685
0.301381
0.301913
0.32637
0.324704
0.322748
0.319765
0.316296
0.312342
0.308092
0.304064
0.300548
0.297412
0.294862
0.292908
0.291468
0.290439
0.289754
0.289365
0.289118
0.288974
0.289009
0.289211
0.289551
0.290009
0.290569
0.29122
0.291948
0.292745
0.293601
0.294504
0.29544
0.296391
0.297338
0.298276
0.299204
0.300006
0.300636
0.301188
0.322564
0.321133
0.319461
0.31685
0.313806
0.310331
0.306584
0.303012
0.299868
0.297041
0.294721
0.292921
0.291578
0.290609
0.28997
0.289631
0.289441
0.289332
0.289369
0.289552
0.289854
0.290256
0.290746
0.291311
0.291944
0.292636
0.293381
0.29417
0.294992
0.295833
0.296679
0.297536
0.29836
0.299054
0.299662
0.300246
0.319391
0.318164
0.316763
0.314471
0.311804
0.308748
0.305443
0.302266
0.299444
0.296886
0.294765
0.2931
0.291841
0.290926
0.290326
0.290029
0.289895
0.289821
0.289853
0.290008
0.290262
0.290596
0.290998
0.29146
0.291973
0.292534
0.293138
0.293779
0.294451
0.295143
0.295845
0.296576
0.29726
0.297856
0.298456
0.299058
0.316801
0.315822
0.314595
0.312567
0.310232
0.307545
0.304629
0.301799
0.299257
0.296934
0.294988
0.293441
0.292259
0.291392
0.290826
0.290563
0.290486
0.290448
0.290464
0.290581
0.290776
0.291028
0.291326
0.291663
0.292032
0.292432
0.292861
0.293319
0.2938
0.294301
0.294814
0.295367
0.295904
0.29642
0.296999
0.297608
0.314725
0.313983
0.312863
0.31108
0.309039
0.306677
0.304105
0.301582
0.299287
0.297173
0.295383
0.293945
0.292832
0.29201
0.291475
0.291243
0.291217
0.291208
0.291201
0.291272
0.291396
0.291552
0.291728
0.291917
0.292116
0.292324
0.292543
0.292777
0.293027
0.293295
0.293582
0.293918
0.294294
0.294733
0.295283
0.2959
0.313071
0.312449
0.311483
0.309954
0.308179
0.306104
0.303841
0.301595
0.299518
0.297592
0.295946
0.294607
0.29356
0.292781
0.292277
0.292074
0.292086
0.292094
0.292062
0.292079
0.292122
0.292168
0.292204
0.292222
0.292221
0.292204
0.292177
0.292145
0.292121
0.292121
0.292151
0.292244
0.292443
0.292802
0.293325
0.293955
0.311787
0.311223
0.310433
0.309146
0.307609
0.305789
0.303809
0.301819
0.299935
0.298182
0.296669
0.295424
0.29444
0.293703
0.293229
0.293051
0.293091
0.293107
0.293046
0.293002
0.292954
0.292875
0.292751
0.292575
0.292347
0.29207
0.291758
0.291419
0.291082
0.290778
0.290517
0.290366
0.29039
0.290668
0.29117
0.291825
0.310833
0.310333
0.309704
0.308624
0.307301
0.305709
0.303986
0.302231
0.300523
0.298931
0.297544
0.29639
0.295468
0.294772
0.294326
0.294169
0.294228
0.294246
0.294151
0.294039
0.29389
0.293674
0.293372
0.292978
0.292491
0.291922
0.291286
0.290601
0.289924
0.28927
0.288706
0.28833
0.288199
0.288403
0.288893
0.289586
0.310179
0.309761
0.309265
0.308359
0.307227
0.305846
0.30435
0.302804
0.301266
0.299828
0.298561
0.297496
0.296636
0.295982
0.295563
0.295421
0.295491
0.295505
0.295373
0.295188
0.294931
0.294564
0.294067
0.293431
0.292657
0.291761
0.290762
0.289689
0.288648
0.287635
0.286803
0.286218
0.285953
0.286103
0.286597
0.287335
0.309787
0.309457
0.30907
0.308315
0.307358
0.306171
0.304878
0.303522
0.302148
0.300858
0.29971
0.298734
0.297937
0.297325
0.296931
0.296798
0.296872
0.296878
0.296708
0.296447
0.296075
0.295548
0.294839
0.293938
0.292849
0.291592
0.290187
0.288698
0.287282
0.285954
0.284852
0.284091
0.283752
0.283881
0.284397
0.285183
0.309621
0.30937
0.309077
0.308461
0.307663
0.306657
0.305549
0.30437
0.303157
0.302009
0.300978
0.300091
0.299359
0.29879
0.298419
0.298289
0.298356
0.298353
0.298149
0.297813
0.297323
0.296628
0.295693
0.294506
0.293073
0.291419
0.289567
0.287687
0.28584
0.28421
0.282934
0.282061
0.281705
0.281845
0.282387
0.283203
0.309647
0.30946
0.309253
0.308765
0.308115
0.307276
0.306342
0.305331
0.304273
0.303266
0.30235
0.301554
0.300887
0.300363
0.300013
0.299879
0.29993
0.29992
0.299691
0.299283
0.298677
0.297809
0.296636
0.295141
0.293337
0.291248
0.288909
0.286585
0.284378
0.282543
0.281145
0.280241
0.279912
0.280082
0.28064
0.281427
0.309831
0.309698
0.309572
0.309203
0.308689
0.308007
0.307235
0.306386
0.305481
0.304611
0.303812
0.303107
0.302508
0.302027
0.301696
0.301551
0.301573
0.301566
0.301334
0.300857
0.300137
0.299096
0.297674
0.295854
0.293652
0.291089
0.288279
0.2855
0.283
0.28101
0.279568
0.278717
0.278436
0.278632
0.279175
0.279893
0.31014
0.310061
0.310009
0.309747
0.30936
0.308826
0.308209
0.307514
0.306759
0.306026
0.305344
0.304733
0.304203
0.303766
0.303452
0.303292
0.303275
0.303274
0.303057
0.302535
0.301711
0.300497
0.298818
0.296652
0.294029
0.29097
0.287698
0.284475
0.281746
0.279682
0.278282
0.277519
0.27729
0.277492
0.277983
0.278628
0.310551
0.31052
0.310535
0.310374
0.310106
0.30971
0.30924
0.308696
0.308089
0.307492
0.306928
0.306412
0.305953
0.305561
0.305263
0.305089
0.305031
0.305008
0.30482
0.304308
0.303412
0.302034
0.300082
0.297547
0.294482
0.29089
0.287105
0.283532
0.280669
0.278623
0.277324
0.276646
0.276451
0.276632
0.277058
0.277643
0.311038
0.311051
0.311128
0.31106
0.310904
0.310639
0.31031
0.309911
0.309449
0.308988
0.308542
0.308123
0.307737
0.307392
0.307111
0.306927
0.306838
0.306774
0.306593
0.306122
0.305226
0.303725
0.301485
0.298552
0.295007
0.290802
0.286548
0.282728
0.279822
0.277863
0.276679
0.276062
0.275872
0.276013
0.276388
0.276923
0.311579
0.311632
0.311765
0.311783
0.311732
0.311591
0.311395
0.311137
0.310817
0.310489
0.310161
0.30984
0.309528
0.309229
0.308967
0.308779
0.308675
0.308594
0.308406
0.307951
0.307064
0.305502
0.303012
0.299659
0.295589
0.290805
0.286093
0.282105
0.279234
0.277387
0.276291
0.275708
0.275509
0.27562
0.275958
0.276443
0.312153
0.312239
0.312425
0.312522
0.312569
0.312544
0.312476
0.312352
0.31217
0.311972
0.311759
0.311534
0.311292
0.311038
0.310795
0.310609
0.310505
0.310431
0.31026
0.309816
0.3089
0.307273
0.304573
0.300826
0.296232
0.290992
0.285789
0.281676
0.278885
0.277145
0.276109
0.275546
0.275348
0.275441
0.275744
0.276179
0.31274
0.312855
0.313088
0.313258
0.313395
0.31348
0.31353
0.313534
0.313483
0.313409
0.313306
0.313171
0.312995
0.312779
0.312554
0.312376
0.312282
0.31223
0.312091
0.311672
0.310739
0.309012
0.30611
0.302021
0.29695
0.291277
0.285645
0.281446
0.278742
0.277095
0.276109
0.275569
0.275375
0.275451
0.27572
0.27611
0.313321
0.313462
0.313736
0.313972
0.314192
0.314377
0.314538
0.314661
0.314733
0.314775
0.314774
0.314719
0.314599
0.314415
0.314206
0.314041
0.313967
0.313948
0.31385
0.313464
0.31253
0.310711
0.307632
0.303234
0.29772
0.291639
0.285687
0.281422
0.278783
0.277212
0.276272
0.275754
0.275564
0.275626
0.275867
0.276217
0.313879
0.314041
0.314352
0.314647
0.314943
0.315219
0.315481
0.315712
0.315897
0.316045
0.316134
0.31615
0.316075
0.315916
0.315721
0.315573
0.315529
0.31555
0.315497
0.31514
0.314222
0.312357
0.309147
0.304486
0.298574
0.292132
0.285953
0.2816
0.278987
0.277468
0.276571
0.276078
0.275896
0.275947
0.276166
0.276484
0.3144
0.314579
0.314922
0.315267
0.31563
0.315988
0.316341
0.316669
0.316955
0.317196
0.317363
0.317436
0.317396
0.317255
0.317075
0.316949
0.31694
0.317006
0.316986
0.316646
0.315765
0.31392
0.310645
0.305811
0.299609
0.292813
0.286449
0.281954
0.279325
0.277841
0.276986
0.276521
0.27635
0.276398
0.2766
0.276892
0.31487
0.315061
0.31543
0.315819
0.31624
0.31667
0.317102
0.317515
0.317888
0.318208
0.31844
0.318557
0.318542
0.318414
0.318247
0.318148
0.318179
0.318282
0.318279
0.317965
0.317124
0.315314
0.312063
0.30719
0.300856
0.293733
0.287207
0.282489
0.279788
0.278317
0.277501
0.277068
0.276913
0.276961
0.277153
0.277427
0.315277
0.315476
0.315866
0.316291
0.31676
0.317251
0.31775
0.318235
0.318681
0.319066
0.319348
0.319497
0.319497
0.319377
0.319225
0.319155
0.319222
0.319349
0.319352
0.319083
0.31827
0.316456
0.313317
0.308545
0.302236
0.29491
0.288256
0.283226
0.280377
0.278888
0.278104
0.277706
0.277569
0.277623
0.277809
0.278073
0.315609
0.315813
0.316218
0.316671
0.317179
0.31772
0.318275
0.318818
0.319322
0.319758
0.320075
0.320243
0.320249
0.320133
0.319996
0.319953
0.320047
0.320187
0.320193
0.319954
0.319158
0.317354
0.314354
0.309775
0.303619
0.296318
0.289574
0.284184
0.281101
0.27955
0.278786
0.278423
0.278308
0.278371
0.278555
0.278816
0.31586
0.316065
0.316479
0.316953
0.317491
0.31807
0.318668
0.319255
0.319803
0.320273
0.320612
0.320787
0.320791
0.320676
0.320552
0.32053
0.32064
0.320783
0.320791
0.320555
0.319763
0.318007
0.31515
0.310854
0.304974
0.297831
0.291022
0.2854
0.281994
0.280311
0.27954
0.27921
0.279121
0.279194
0.27938
0.279642
0.316021
0.316223
0.316642
0.317128
0.317687
0.318294
0.318922
0.319539
0.320116
0.320607
0.320954
0.321124
0.32112
0.321002
0.320888
0.320878
0.320991
0.321125
0.321127
0.320879
0.32008
0.318378
0.315662
0.311746
0.306348
0.299618
0.29267
0.286968
0.283117
0.281189
0.280365
0.28006
0.280001
0.280085
0.280271
0.28054
0.31609
0.316282
0.316701
0.317193
0.317763
0.318388
0.319034
0.319668
0.32026
0.320757
0.321099
0.321255
0.321236
0.321113
0.321003
0.320995
0.3211
0.321212
0.321201
0.320932
0.320116
0.318459
0.315877
0.312318
0.307511
0.301486
0.294602
0.288786
0.284514
0.282214
0.281267
0.280966
0.280943
0.281037
0.281222
0.281497
0.316063
0.316243
0.316653
0.317145
0.317719
0.318349
0.319002
0.319641
0.320234
0.320724
0.321049
0.321183
0.321144
0.321012
0.320899
0.320886
0.320971
0.321049
0.32102
0.320725
0.319883
0.318269
0.315825
0.312549
0.308293
0.302923
0.296528
0.290653
0.286226
0.283459
0.28227
0.281928
0.281942
0.282049
0.282225
0.282503
0.315936
0.316107
0.316499
0.316984
0.317552
0.318178
0.318826
0.319458
0.320041
0.320511
0.32081
0.320915
0.320852
0.320708
0.320586
0.320561
0.320618
0.320658
0.320597
0.320267
0.319397
0.317824
0.31551
0.312476
0.308732
0.304079
0.298517
0.292752
0.288198
0.285042
0.283463
0.28298
0.283007
0.283125
0.283277
0.283545
0.315707
0.31587
0.31624
0.316711
0.317264
0.317878
0.318511
0.319124
0.319684
0.320125
0.320389
0.320458
0.32037
0.320209
0.320075
0.320031
0.320057
0.320057
0.319949
0.319569
0.318675
0.317141
0.314949
0.312129
0.30875
0.304784
0.300135
0.29491
0.290258
0.28697
0.284962
0.284245
0.284189
0.284278
0.284376
0.284606
0.315374
0.315529
0.315875
0.316327
0.316859
0.31745
0.318059
0.318644
0.319171
0.319573
0.319795
0.319826
0.319709
0.319528
0.319377
0.31931
0.3193
0.319256
0.319093
0.318654
0.317735
0.316241
0.314169
0.311553
0.308459
0.304978
0.301053
0.296686
0.292203
0.288852
0.286664
0.285754
0.28562
0.285577
0.285515
0.285647
0.314941
0.315084
0.315406
0.315834
0.316339
0.316901
0.317477
0.318025
0.318509
0.318864
0.319039
0.319029
0.31888
0.318676
0.318504
0.318409
0.318358
0.318263
0.31804
0.317539
0.316597
0.31514
0.313183
0.310767
0.30795
0.304846
0.30157
0.298052
0.294297
0.29081
0.288345
0.287252
0.287373
0.287167
0.286659
0.286564
0.314412
0.314543
0.314838
0.315239
0.315711
0.316236
0.316772
0.317275
0.317709
0.31801
0.318132
0.318078
0.317896
0.317665
0.317467
0.317339
0.317242
0.317092
0.316805
0.316243
0.315275
0.313853
0.312003
0.309774
0.30722
0.30443
0.301596
0.298813
0.295979
0.29314
0.290399
0.288717
0.289049
0.289166
0.287899
0.287099
0.313792
0.313909
0.314178
0.314548
0.314981
0.315464
0.315953
0.316402
0.316779
0.317022
0.317089
0.316987
0.316768
0.316506
0.316278
0.316112
0.315963
0.315754
0.315402
0.314783
0.313789
0.312397
0.310641
0.308583
0.306279
0.303797
0.301298
0.298986
0.296898
0.294957
0.293016
0.291095
0.290671
0.291454
0.289416
0.28623
0.313168
0.313274
0.313512
0.31385
0.314245
0.314686
0.315128
0.315525
0.315844
0.316028
0.316041
0.315896
0.315644
0.315353
0.315095
0.314891
0.314695
0.314431
0.314022
0.313355
0.312341
0.310972
0.309292
0.30737
0.305269
0.303057
0.300874
0.298929
0.297319
0.296075
0.294952
0.293607
0.293044
0.293894
0.290735
0.283456
0.312568
0.312665
0.312871
0.313181
0.313541
0.313942
0.314339
0.314685
0.31495
0.315077
0.315041
0.314858
0.314577
0.314261
0.313974
0.313735
0.313495
0.313183
0.312724
0.312017
0.310986
0.309638
0.308021
0.306208
0.304267
0.30227
0.300369
0.298778
0.297573
0.296801
0.296299
0.295604
0.295512
0.297071
0.291696
0.282672
0.311919
0.312008
0.312189
0.31247
0.312793
0.31315
0.313499
0.313793
0.313998
0.314068
0.313983
0.31376
0.313447
0.313102
0.312783
0.312505
0.312219
0.311859
0.311352
0.310607
0.309563
0.308234
0.306677
0.304966
0.303171
0.301368
0.299735
0.298492
0.297697
0.297367
0.297418
0.297684
0.298871
0.301548
0.296002
0.281195
0.35093
0.369138
0.375148
0.374888
0.350909
0.365625
0.373243
0.37416
0.346755
0.359623
0.368404
0.371233
0.341525
0.352316
0.360829
0.364861
0.335759
0.344681
0.352183
0.3562
0.32978
0.337043
0.343269
0.346795
0.323859
0.329705
0.334672
0.337569
0.318198
0.322866
0.326733
0.329005
0.312914
0.316624
0.319589
0.321313
0.308069
0.311012
0.313264
0.314538
0.303685
0.30602
0.307722
0.30864
0.299763
0.301619
0.3029
0.303546
0.296286
0.297767
0.29873
0.299171
0.29323
0.29442
0.295142
0.295433
0.29057
0.291534
0.292075
0.292258
0.288279
0.289066
0.289474
0.289579
0.286329
0.286981
0.287289
0.287342
0.284696
0.285246
0.28548
0.285498
0.283359
0.283829
0.284011
0.284009
0.282294
0.282707
0.282851
0.282841
0.28148
0.281853
0.281976
0.281968
0.280896
0.28125
0.281364
0.281367
0.280528
0.280881
0.280999
0.281024
0.280366
0.280736
0.280872
0.280928
0.280407
0.280811
0.280977
0.281073
0.280652
0.281106
0.281315
0.281459
0.281107
0.281625
0.281889
0.282088
0.281781
0.282376
0.282705
0.282967
0.282686
0.283365
0.283766
0.28411
0.283828
0.284604
0.285091
0.285518
0.285215
0.286102
0.286687
0.287203
0.286856
0.287873
0.288568
0.289184
0.288766
0.289928
0.290743
0.291487
0.290962
0.292286
0.293239
0.294124
0.29346
0.294967
0.296076
0.297119
0.296278
0.297989
0.299275
0.300496
0.299436
0.301375
0.302861
0.304282
0.302957
0.305145
0.306858
0.308504
0.30687
0.309327
0.311292
0.313192
0.311202
0.31394
0.316185
0.318369
0.315949
0.318993
0.321556
0.324062
0.321113
0.324499
0.327421
0.330294
0.32673
0.330478