/*--------------------------------*- C++ -*----------------------------------*\
| =========                 |                                                 |
| \\      /  F ield         | OpenFOAM: The Open Source CFD Toolbox           |
|  \\    /   O peration     | Version:  v2012                                 |
|   \\  /    A nd           | Website:  www.openfoam.com                      |
|    \\/     M anipulation  |                                                 |
\*---------------------------------------------------------------------------*/
FoamFile
{
    version     2.0;
    format      ascii;
    class       surfaceScalarField;
    location    "623";
    object      phi;
}
// * * * * * * * * * * * * * * * * * * * * * * * * * * * * * * * * * * * * * //

dimensions      [0 3 -1 0 0 0 0];
oriented        oriented;


internalField   nonuniform List<scalar> 
11989
(
-0.000198511
1.22891e-07
0.000198388
-0.000198614
1.03569e-07
-0.000198704
8.95008e-08
-0.000198783
7.97248e-08
-0.000198857
7.32309e-08
-0.000198926
6.92072e-08
-0.000198993
6.70055e-08
-0.000199059
6.61725e-08
-0.000199125
6.62854e-08
-0.000199193
6.73374e-08
-0.000199262
6.9201e-08
-0.000199334
7.18213e-08
-0.000199409
7.51913e-08
-0.000199488
7.92768e-08
-0.000199572
8.39149e-08
-0.000199661
8.86401e-08
-0.000199753
9.24934e-08
-0.000199849
9.55291e-08
-0.000199942
9.29529e-08
5.83593e-08
-0.000199847
1.83297e-07
0.000199787
-0.00019989
1.46045e-07
-0.00019992
1.19247e-07
-0.000199941
1.00664e-07
-0.000199956
8.817e-08
-0.000199967
8.01702e-08
-0.000199975
7.53662e-08
-0.000199982
7.29669e-08
-0.000199987
7.20716e-08
-0.000199993
7.26147e-08
-0.000199998
7.43509e-08
-0.000200003
7.71038e-08
-0.000200009
8.07735e-08
-0.000200015
8.51951e-08
-0.000200021
8.99117e-08
-0.000200026
9.4026e-08
-0.00020003
9.6606e-08
-0.00020003
9.58481e-08
-0.000200019
8.17248e-08
3.91034e-08
-0.000200231
2.21141e-07
0.000200193
-0.000200251
1.66945e-07
-0.000200261
1.28505e-07
-0.000200262
1.02039e-07
-0.000200258
8.42089e-08
-0.000200251
7.26573e-08
-0.000200241
6.52627e-08
-0.000200229
6.09889e-08
-0.000200215
5.8811e-08
-0.000200201
5.83008e-08
-0.000200186
5.90529e-08
-0.000200169
6.08221e-08
-0.000200152
6.34428e-08
-0.000200134
6.67344e-08
-0.000200114
7.01677e-08
-0.000200092
7.23548e-08
-0.000200069
7.2994e-08
-0.000200042
6.95322e-08
-0.000200016
5.51389e-08
2.34044e-08
-0.000200412
2.42438e-07
0.00020039
-0.000200418
1.72841e-07
-0.000200414
1.24549e-07
-0.000200403
9.156e-08
-0.000200389
6.96327e-08
-0.000200371
5.53826e-08
-0.000200352
4.58669e-08
-0.000200331
3.98801e-08
-0.000200308
3.6321e-08
-0.000200285
3.44723e-08
-0.000200259
3.38412e-08
-0.000200233
3.41147e-08
-0.000200204
3.5079e-08
-0.000200174
3.65224e-08
-0.000200142
3.80153e-08
-0.000200108
3.88385e-08
-0.000200074
3.8648e-08
-0.00020004
3.57798e-08
-0.000200012
2.72886e-08
1.0998e-08
-0.000200511
2.46146e-07
0.000200507
-0.000200502
1.64388e-07
-0.000200487
1.09534e-07
-0.000200468
7.23814e-08
-0.000200446
4.7895e-08
-0.000200423
3.20905e-08
-0.000200398
2.12821e-08
-0.000200373
1.41087e-08
-0.000200346
9.3533e-09
-0.000200317
6.1995e-09
-0.000200288
4.10053e-09
-0.000200256
2.7033e-09
-0.000200223
1.77644e-09
-0.000200188
1.16555e-09
-0.00020015
7.6646e-10
-0.000200112
5.00911e-10
-0.000200074
3.17083e-10
-0.000200038
1.89358e-10
-0.000200011
9.89757e-11
3.28052e-11
-0.000200558
2.28459e-07
0.000200576
-0.000200534
1.40461e-07
-0.000200508
8.31281e-08
-0.000200481
4.62478e-08
-0.000200455
2.18948e-08
-0.000200429
5.66359e-09
-0.000200402
-5.34029e-09
-0.000200375
-1.29941e-08
-0.000200347
-1.84967e-08
-0.000200319
-2.26567e-08
-0.000200288
-2.60252e-08
-0.000200257
-2.89632e-08
-0.000200223
-3.16957e-08
-0.000200188
-3.43052e-08
-0.000200151
-3.65564e-08
-0.000200112
-3.78827e-08
-0.000200074
-3.80444e-08
-0.000200038
-3.54214e-08
-0.000200011
-2.71058e-08
-1.09378e-08
-0.000200548
1.79016e-07
0.000200598
-0.000200509
1.01392e-07
-0.000200473
4.7288e-08
-0.000200443
1.54428e-08
-0.000200415
-6.01296e-09
-0.000200388
-2.05231e-08
-0.000200363
-3.05921e-08
-0.000200338
-3.79104e-08
-0.000200313
-4.35336e-08
-0.000200288
-4.81818e-08
-0.000200261
-5.23605e-08
-0.000200234
-5.64127e-08
-0.000200205
-6.055e-08
-0.000200175
-6.48455e-08
-0.000200142
-6.89238e-08
-0.000200109
-7.15328e-08
-0.000200074
-7.24767e-08
-0.00020004
-6.92274e-08
-0.000200012
-5.50004e-08
-2.33595e-08
-0.000200446
8.59971e-08
0.000200539
-0.000200394
4.99832e-08
-0.000200353
6.3187e-09
-0.000200323
-1.49545e-08
-0.000200298
-3.06578e-08
-0.000200277
-4.16707e-08
-0.000200258
-4.96731e-08
-0.00020024
-5.57678e-08
-0.000200223
-6.07445e-08
-0.000200206
-6.5162e-08
-0.000200189
-6.94331e-08
-0.000200172
-7.38624e-08
-0.000200153
-7.86456e-08
-0.000200134
-8.38028e-08
-0.000200114
-8.89916e-08
-0.000200093
-9.34233e-08
-0.000200069
-9.62276e-08
-0.000200042
-9.56065e-08
-0.000200016
-8.16544e-08
-3.9082e-08
-0.000200123
-7.50099e-08
0.000200284
-0.000200067
-6.35651e-09
-0.000200036
-2.44188e-08
-0.000200018
-3.34454e-08
-0.000200007
-4.17214e-08
-0.000200001
-4.8001e-08
-0.000199997
-5.28159e-08
-0.000199996
-5.66935e-08
-0.000199997
-6.00611e-08
-0.000199999
-6.32455e-08
-0.000200002
-6.65035e-08
-0.000200006
-7.00442e-08
-0.00020001
-7.4026e-08
-0.000200016
-7.8514e-08
-0.000200021
-8.34136e-08
-0.000200026
-8.83146e-08
-0.00020003
-9.22851e-08
-0.000200031
-9.53889e-08
-0.000200019
-9.29386e-08
-5.83536e-08
-0.000198813
0.000198738
-0.00019882
-0.000198844
-0.000198878
-0.000198919
-0.000198967
-0.00019902
-0.000199077
-0.000199137
-0.0001992
-0.000199267
-0.000199337
-0.000199411
-0.000199489
-0.000199573
-0.000199661
-0.000199753
-0.000199849
-0.000199942
-0.000197838
2.64903e-07
0.000197573
-0.000198058
2.19846e-07
-0.000198239
1.81168e-07
1.48662e-07
-0.000199433
4.60579e-07
0.000199237
-0.000199586
3.73066e-07
-0.000199702
2.97392e-07
2.33544e-07
-0.000199905
6.32339e-07
0.000199733
-0.000200036
5.04018e-07
-0.00020013
3.91806e-07
2.95943e-07
-0.000200144
7.89331e-07
0.000199987
-0.000200262
6.21916e-07
-0.000200343
4.73105e-07
3.42925e-07
-0.000200291
9.37083e-07
0.000200144
-0.000200401
7.31579e-07
-0.000200474
5.45734e-07
3.76275e-07
-0.000200371
1.08682e-06
0.000200222
-0.000200481
8.40713e-07
-0.000200553
6.18191e-07
3.98918e-07
-0.00020035
1.27487e-06
0.000200162
-0.000200485
9.75688e-07
-0.000200585
7.18491e-07
4.11792e-07
-0.000200061
1.63217e-06
0.000199704
-0.000200314
1.22834e-06
-0.000200515
9.19949e-07
4.35067e-07
-0.000198718
2.6134e-06
0.000197737
-0.000199428
1.93889e-06
-0.000199875
1.36687e-06
8.44148e-07
-0.000188324
0.000184812
6.12509e-06
-0.000191551
5.16566e-06
-0.000193864
3.68004e-06
5.71883e-06
7.22295e-06
-7.22296e-06
9.00786e-06
-1.78491e-06
6.33086e-06
2.67699e-06
5.75647e-07
5.7552e-06
-9.20891e-06
9.78456e-06
-2.37471e-05
1.45382e-05
-4.06908e-05
1.69436e-05
-5.71642e-05
1.64734e-05
-7.21407e-05
1.49764e-05
-8.58013e-05
1.36606e-05
-9.83034e-05
1.25021e-05
-0.000109754
1.14507e-05
-0.000120233
1.04794e-05
-0.000129802
9.56858e-06
-0.000138508
8.70579e-06
-0.000146391
7.88361e-06
-0.00015349
7.09891e-06
-0.000159842
6.35168e-06
-0.000165486
5.64398e-06
-0.000170465
4.97912e-06
-0.000174826
4.36103e-06
-0.00017862
3.79344e-06
-0.000181896
3.27623e-06
-0.000184704
2.8084e-06
-0.000187094
2.39022e-06
-0.000189115
2.0205e-06
-0.000190812
1.69718e-06
-0.00019223
1.4175e-06
-0.000193408
1.17868e-06
-0.000194386
9.77977e-07
-0.000195195
8.0854e-07
-0.000195862
6.67325e-07
-0.000196415
5.52585e-07
-0.000196873
4.58674e-07
-0.000197255
3.81657e-07
3.18023e-07
4.21741e-06
-1.14404e-05
2.31104e-06
1.21453e-07
-4.08513e-06
9.07317e-06
-1.54974e-05
1.71674e-05
-3.05728e-05
2.486e-05
-4.5981e-05
2.99464e-05
-5.99558e-05
3.09184e-05
-7.29061e-05
2.94238e-05
-8.54068e-05
2.74772e-05
-9.72395e-05
2.54933e-05
-0.000108305
2.3568e-05
-0.000118597
2.1742e-05
-0.000128122
2.0005e-05
-0.000136895
1.83415e-05
-0.000144929
1.67396e-05
-0.000152239
1.51934e-05
-0.000158843
1.3703e-05
-0.000164765
1.22733e-05
-0.000170032
1.09117e-05
-0.00017468
9.62707e-06
-0.000178747
8.42757e-06
-0.000182273
7.31937e-06
-0.000185303
6.30688e-06
-0.000187887
5.39254e-06
-0.000190074
4.57627e-06
-0.000191909
3.85574e-06
-0.000193438
3.22683e-06
-0.000194705
2.68391e-06
-0.000195746
2.22008e-06
-0.000196596
1.8279e-06
-0.000197289
1.5012e-06
-0.000197854
1.23248e-06
-0.000198314
1.01258e-06
-0.000198688
8.329e-07
-0.000198992
6.85408e-07
5.63153e-07
-9.2879e-07
-1.05116e-05
-6.9868e-06
6.17946e-06
-1.71232e-05
1.92096e-05
-3.04657e-05
3.05099e-05
-4.44206e-05
3.88149e-05
-5.71101e-05
4.2636e-05
-6.87797e-05
4.2588e-05
-8.01937e-05
4.08378e-05
-9.13669e-05
3.86503e-05
-0.000102128
3.62548e-05
-0.000112383
3.38231e-05
-0.000122063
3.14214e-05
-0.000131123
2.90652e-05
-0.000139537
2.67552e-05
-0.000147288
2.44905e-05
-0.000154369
2.22749e-05
-0.000160784
2.01177e-05
-0.000166543
1.80326e-05
-0.000171668
1.60362e-05
-0.000176186
1.41453e-05
-0.000180133
1.23749e-05
-0.000183551
1.0737e-05
-0.000186484
9.24004e-06
-0.00018898
7.88828e-06
-0.000191085
6.68186e-06
-0.000192847
5.61748e-06
-0.000194309
4.68908e-06
-0.000195514
3.88831e-06
-0.000196499
3.20527e-06
-0.0001973
2.62957e-06
-0.00019795
2.15083e-06
-0.000198475
1.7571e-06
-0.000198898
1.43593e-06
-0.00019924
1.17443e-06
-0.000199514
9.60065e-07
7.8211e-07
-6.19584e-06
-4.31574e-06
-1.54985e-05
1.54821e-05
-2.74538e-05
3.11648e-05
-4.04064e-05
4.34625e-05
-5.24776e-05
5.08861e-05
-6.33812e-05
5.35396e-05
-7.39098e-05
5.31166e-05
-8.44445e-05
5.13725e-05
-9.48414e-05
4.90472e-05
-0.000104975
4.63881e-05
-0.00011474
4.35886e-05
-0.000124048
4.07294e-05
-0.00013283
3.78476e-05
-0.000141037
3.49614e-05
-0.000148631
3.20851e-05
-0.000155592
2.92358e-05
-0.00016191
2.64356e-05
-0.000167588
2.37106e-05
-0.000172641
2.10888e-05
-0.000177093
1.85974e-05
-0.000180978
1.62603e-05
-0.000184337
1.4096e-05
-0.000187214
1.21172e-05
-0.000189657
1.03305e-05
-0.000191711
8.73642e-06
-0.000193424
7.33073e-06
-0.000194841
6.10551e-06
-0.000196002
5.04979e-06
-0.000196948
4.15051e-06
-0.000197712
3.39369e-06
-0.000198326
2.76504e-06
-0.000198818
2.24958e-06
-0.000199214
1.83108e-06
-0.000199531
1.49185e-06
-0.000199785
1.2145e-06
9.83992e-07
-1.01263e-05
5.81057e-06
-2.17109e-05
2.70667e-05
-3.42308e-05
4.36847e-05
-4.62602e-05
5.5492e-05
-5.70668e-05
6.16927e-05
-6.71407e-05
6.36135e-05
-7.71293e-05
6.31051e-05
-8.71491e-05
6.13923e-05
-9.70813e-05
5.89794e-05
-0.000106828
5.61347e-05
-0.000116284
5.30443e-05
-0.000125354
4.98e-05
-0.000133961
4.64542e-05
-0.000142039
4.30402e-05
-0.000149542
3.95872e-05
-0.000156433
3.61272e-05
-0.000162695
3.26974e-05
-0.000168323
2.93392e-05
-0.000173329
2.60946e-05
-0.000177735
2.30036e-05
-0.000181575
2.00998e-05
-0.000184889
1.74096e-05
-0.000187722
1.49504e-05
-0.000190122
1.27308e-05
-0.000192137
1.07515e-05
-0.000193814
9.00729e-06
-0.000195196
7.48793e-06
-0.000196326
6.1798e-06
-0.000197242
5.06644e-06
-0.000197979
4.13016e-06
-0.000198567
3.35323e-06
-0.000199035
2.71827e-06
-0.00019941
2.20578e-06
-0.000199711
1.79261e-06
-0.000199952
1.45584e-06
1.17539e-06
-1.27459e-05
1.85564e-05
-2.56663e-05
3.99872e-05
-3.814e-05
5.61584e-05
-4.94084e-05
6.67603e-05
-5.95905e-05
7.18748e-05
-6.93495e-05
7.33724e-05
-7.90832e-05
7.28389e-05
-8.88154e-05
7.11245e-05
-9.84742e-05
6.86382e-05
-0.000107981
6.56412e-05
-0.000117239
6.23028e-05
-0.000126158
5.87181e-05
-0.000134651
5.49475e-05
-0.000142646
5.10355e-05
-0.000150084
4.7025e-05
-0.000156921
4.29642e-05
-0.000163132
3.8908e-05
-0.000168708
3.49158e-05
-0.00017366
3.10468e-05
-0.000178012
2.73553e-05
-0.000181799
2.38868e-05
-0.000185065
2.06752e-05
-0.000187857
1.77424e-05
-0.000190224
1.50984e-05
-0.000192216
1.2743e-05
-0.000193877
1.06685e-05
-0.000195251
8.86193e-06
-0.000196378
7.30664e-06
-0.000197294
5.98273e-06
-0.000198033
4.86873e-06
-0.000198623
3.94375e-06
-0.000199094
3.1893e-06
-0.000199473
2.58401e-06
-0.000199778
2.09824e-06
-0.000200025
1.70277e-06
1.3719e-06
-1.42929e-05
3.28493e-05
-2.77947e-05
5.3489e-05
-4.00181e-05
6.83819e-05
-5.08477e-05
7.75899e-05
-6.08088e-05
8.18359e-05
-7.048e-05
8.30436e-05
-8.00966e-05
8.24555e-05
-8.9673e-05
8.07009e-05
-9.91707e-05
7.81358e-05
-0.000108526
7.49962e-05
-0.000117653
7.14301e-05
-0.000126462
6.75274e-05
-0.000134864
6.33494e-05
-0.000142777
5.89484e-05
-0.000150132
5.43806e-05
-0.00015688
4.97123e-05
-0.000162992
4.50198e-05
-0.000168461
4.03845e-05
-0.0001733
3.58862e-05
-0.000177542
3.15967e-05
-0.000181229
2.75736e-05
-0.000184412
2.38586e-05
-0.000187146
2.04761e-05
-0.000189482
1.74352e-05
-0.000191471
1.4732e-05
-0.000193156
1.23534e-05
-0.000194575
1.0281e-05
-0.000195763
8.49479e-06
-0.000196753
6.97189e-06
-0.00019757
5.6858e-06
-0.000198239
4.61321e-06
-0.000198785
3.73519e-06
-0.000199235
3.03361e-06
-0.000199607
2.47067e-06
-0.000199914
2.00953e-06
1.61968e-06
-1.51653e-05
4.80147e-05
-2.86424e-05
6.69661e-05
-4.0579e-05
8.03184e-05
-5.12043e-05
8.82151e-05
-6.113e-05
9.17616e-05
-7.07938e-05
9.27074e-05
-8.03541e-05
9.20158e-05
-8.98393e-05
9.01862e-05
-9.92304e-05
8.75268e-05
-0.000108473
8.42389e-05
-0.000117488
8.04452e-05
-0.000126183
7.6222e-05
-0.00013446
7.16264e-05
-0.000142227
6.67158e-05
-0.000149408
6.1561e-05
-0.000155946
5.62507e-05
-0.000161815
5.08883e-05
-0.000167014
4.5584e-05
-0.000171572
4.04439e-05
-0.000175536
3.55607e-05
-0.000178969
3.10062e-05
-0.000181939
2.68286e-05
-0.000184515
2.30526e-05
-0.000186762
1.96821e-05
-0.000188735
1.67049e-05
-0.000190478
1.40965e-05
-0.000192024
1.18264e-05
-0.000193392
9.86303e-06
-0.000194601
8.18065e-06
-0.000195664
6.74946e-06
-0.000196595
5.54371e-06
-0.000197397
4.53724e-06
-0.000198099
3.73608e-06
-0.000198718
3.08992e-06
-0.000199254
2.54522e-06
2.06964e-06
-1.5376e-05
6.33907e-05
-2.86266e-05
8.02166e-05
-4.03136e-05
9.20054e-05
-5.08447e-05
9.87462e-05
-6.07836e-05
0.000101701
-7.04483e-05
0.000102372
-7.99652e-05
0.000101533
-8.93747e-05
9.95957e-05
-9.86662e-05
9.68184e-05
-0.000107788
9.33603e-05
-0.000116656
8.93133e-05
-0.000125167
8.47329e-05
-0.000133207
7.96669e-05
-0.000140668
7.41772e-05
-0.00014746
6.83527e-05
-0.000153522
6.23123e-05
-0.00015883
5.61968e-05
-0.000163402
5.01558e-05
-0.000167289
4.43307e-05
-0.000170569
3.88413e-05
-0.000173339
3.37762e-05
-0.000175701
2.91904e-05
-0.000177755
2.51064e-05
-0.000179593
2.15199e-05
-0.000181294
1.84057e-05
-0.000182921
1.57242e-05
-0.000184522
1.34275e-05
-0.000186126
1.14663e-05
-0.000187738
9.79272e-06
-0.000189335
8.34681e-06
-0.000190897
7.10608e-06
-0.000192401
6.04108e-06
-0.000193864
5.19877e-06
-0.00019528
4.50632e-06
-0.000196589
3.8536e-06
3.21756e-06
-1.50391e-05
7.84299e-05
-2.80306e-05
9.32081e-05
-3.95188e-05
0.000103494
-4.99808e-05
0.000109208
-5.991e-05
0.00011163
-6.95455e-05
0.000112008
-7.89964e-05
0.000110984
-8.83056e-05
0.000108905
-9.74607e-05
0.000105973
-0.0001064
0.0001023
-0.000115022
9.79357e-05
-0.000123198
9.29089e-05
-0.000130785
8.72536e-05
-0.000137645
8.10373e-05
-0.000143668
7.43752e-05
-0.000148785
6.74293e-05
-0.000152982
6.03943e-05
-0.0001563
5.34734e-05
-0.000158823
4.68539e-05
-0.000160669
4.06872e-05
-0.000161971
3.50786e-05
-0.000162867
3.00861e-05
-0.000163486
2.57259e-05
-0.000163948
2.19819e-05
-0.000164358
1.88157e-05
-0.00016481
1.61758e-05
-0.000165388
1.40051e-05
-0.000166171
1.22497e-05
-0.000167263
1.08849e-05
-0.000168714
9.79769e-06
-0.000170541
8.93321e-06
-0.000172732
8.23218e-06
-0.000175283
7.74985e-06
-0.000178201
7.4242e-06
-0.000181411
7.06311e-06
6.61907e-06
-6.76841e-05
-6.86377e-06
8.06729e-05
-5.35958e-05
-8.92265e-06
-3.53484e-05
-1.45674e-05
-2.96295e-05
-9.80939e-06
-1.52138e-05
1.81595e-05
-1.99983e-06
-1.67322e-05
3.45844e-06
-2.00256e-05
-2.61711e-05
-5.88626e-07
-1.83104e-05
3.68519e-06
1.86244e-06
-1.91833e-05
2.70608e-06
-2.08693e-05
-2.3465e-05
-4.6692e-07
-1.96808e-05
1.83733e-06
6.32414e-07
-2.02826e-05
9.94779e-07
-2.12316e-05
-2.24702e-05
-8.98837e-07
-2.06902e-05
1.90821e-06
-7.10145e-08
-2.11104e-05
3.5338e-07
-2.1656e-05
-2.21169e-05
-1.15639e-06
-2.15673e-05
2.03348e-06
-4.36558e-07
-2.18303e-05
4.60656e-09
-2.20972e-05
-2.21122e-05
-1.22277e-06
-2.23552e-05
2.01071e-06
-5.83043e-07
-2.247e-05
-1.47973e-07
-2.25323e-05
-2.22602e-05
-1.1398e-06
-2.30559e-05
1.84049e-06
-5.84347e-07
-2.30254e-05
-1.94991e-07
-2.29216e-05
-2.24552e-05
-9.42821e-07
-2.3662e-05
1.54887e-06
-4.82221e-07
-2.3486e-05
-1.67294e-07
-2.32366e-05
-2.26225e-05
-6.56064e-07
-2.4164e-05
1.15813e-06
-3.03061e-07
-2.3839e-05
-8.65411e-08
-2.34531e-05
-2.2709e-05
-2.95368e-07
-2.45523e-05
6.83603e-07
-6.40859e-08
-2.40703e-05
2.95328e-08
-2.35467e-05
-2.26795e-05
1.29427e-07
-2.48168e-05
1.35058e-07
2.24921e-07
-2.41658e-05
1.75635e-07
-2.34974e-05
-2.25039e-05
6.12018e-07
-2.49474e-05
-4.81357e-07
5.57196e-07
-2.4111e-05
3.42293e-07
-2.32825e-05
-2.21616e-05
1.14847e-06
-2.49345e-05
-1.16135e-06
9.31043e-07
-2.38936e-05
5.37731e-07
-2.28892e-05
-2.16238e-05
1.73591e-06
-2.47686e-05
-1.90182e-06
1.34333e-06
-2.3501e-05
7.5436e-07
-2.23002e-05
-2.08695e-05
2.37231e-06
-2.44406e-05
-2.70033e-06
1.79252e-06
-2.29212e-05
9.9181e-07
-2.14995e-05
-1.98777e-05
3.0555e-06
-2.39419e-05
-3.55422e-06
2.27746e-06
-2.21432e-05
1.25061e-06
-2.04727e-05
-1.86271e-05
3.78233e-06
-2.32644e-05
-4.45978e-06
2.79611e-06
-2.11569e-05
1.5305e-06
-1.92071e-05
-1.70966e-05
4.54754e-06
-2.24006e-05
-5.41136e-06
3.34447e-06
-1.99539e-05
1.83027e-06
-1.76928e-05
-1.52663e-05
5.34224e-06
-2.13427e-05
-6.40018e-06
3.91496e-06
-1.85266e-05
2.1468e-06
-1.59247e-05
-1.31195e-05
6.15139e-06
-2.00814e-05
-7.41265e-06
4.49242e-06
-1.68676e-05
2.47133e-06
-1.39036e-05
-1.06482e-05
6.95071e-06
-1.86032e-05
-8.42891e-06
5.04621e-06
-1.49631e-05
2.77325e-06
-1.16307e-05
-7.8749e-06
7.70703e-06
-1.68885e-05
-9.42174e-06
5.53132e-06
-1.27874e-05
2.97768e-06
-9.07701e-06
-4.89723e-06
8.38635e-06
-1.49182e-05
-1.03566e-05
5.9423e-06
-1.03433e-05
3.1062e-06
-6.24092e-06
-1.79103e-06
9.0003e-06
-1.26563e-05
-1.12623e-05
6.31192e-06
-7.65498e-06
3.24324e-06
-3.17224e-06
1.45221e-06
9.60303e-06
-1.00964e-05
-1.21629e-05
6.6793e-06
-4.73125e-06
3.4362e-06
7.08638e-08
4.88841e-06
1.01787e-05
-7.27979e-06
-1.29953e-05
7.01734e-06
-1.56994e-06
3.6053e-06
3.48291e-06
8.4937e-06
1.0657e-05
-4.26308e-06
-1.36737e-05
7.31764e-06
1.76945e-06
3.79321e-06
7.00734e-06
1.22869e-05
1.09478e-05
-1.09102e-06
-1.41198e-05
7.51212e-06
5.2051e-06
3.93267e-06
1.05868e-05
1.62196e-05
1.09974e-05
2.18538e-06
-1.42738e-05
7.52697e-06
8.67549e-06
3.92505e-06
1.41887e-05
2.01446e-05
1.07915e-05
5.4871e-06
-1.40932e-05
7.37268e-06
1.20943e-05
3.82679e-06
1.77346e-05
2.39714e-05
1.03322e-05
8.71262e-06
-1.35577e-05
7.06999e-06
1.53565e-05
3.66609e-06
2.11385e-05
2.76375e-05
9.65344e-06
1.17476e-05
-1.26884e-05
6.62724e-06
1.83827e-05
3.43822e-06
2.43275e-05
3.10757e-05
8.81439e-06
1.44785e-05
-1.15453e-05
6.06539e-06
2.11317e-05
3.14354e-06
2.72494e-05
3.42193e-05
7.83642e-06
1.6839e-05
-1.01969e-05
5.40908e-06
2.35591e-05
2.80049e-06
2.9858e-05
3.70198e-05
6.74976e-06
1.88383e-05
-8.74903e-06
4.67021e-06
2.56386e-05
2.41834e-06
3.21098e-05
3.94381e-05
5.61443e-06
2.04874e-05
-7.26356e-06
3.89127e-06
2.73618e-05
2.01558e-06
3.39855e-05
4.14537e-05
4.47468e-06
2.18006e-05
-5.78793e-06
3.10714e-06
2.87293e-05
1.61137e-06
3.54813e-05
4.30651e-05
3.37785e-06
2.27999e-05
-4.37711e-06
2.34817e-06
2.9759e-05
1.21964e-06
3.66098e-05
4.42847e-05
2.34856e-06
2.35079e-05
-3.05653e-06
1.63334e-06
3.04742e-05
8.45704e-07
3.73975e-05
4.51304e-05
1.39863e-06
2.39484e-05
-1.83918e-06
9.73918e-07
3.08989e-05
5.02642e-07
3.78687e-05
4.5633e-05
5.2878e-07
2.41427e-05
-7.23094e-07
3.71586e-07
3.10561e-05
1.91798e-07
3.80485e-05
4.58248e-05
-2.68172e-07
2.41105e-05
3.00412e-07
-1.82186e-07
3.09701e-05
-1.09036e-07
3.79754e-05
4.57158e-05
-1.00169e-06
2.38699e-05
1.24229e-06
-6.94393e-07
3.06628e-05
-3.92895e-07
3.76739e-05
4.53229e-05
-1.6819e-06
2.34379e-05
2.11391e-06
-1.17415e-06
3.01551e-05
-6.67672e-07
3.71674e-05
4.46552e-05
-2.31951e-06
2.28302e-05
2.92721e-06
-1.62755e-06
2.94631e-05
-9.22417e-07
3.64623e-05
4.37328e-05
-2.92682e-06
2.20619e-05
3.69511e-06
-2.06673e-06
2.8603e-05
-1.17608e-06
3.55716e-05
4.25568e-05
-3.51778e-06
2.11479e-05
4.4318e-06
-2.5038e-06
2.7589e-05
-1.4343e-06
3.45021e-05
4.11225e-05
-4.1085e-06
2.01034e-05
5.15303e-06
-2.95335e-06
2.64339e-05
-1.7069e-06
3.32557e-05
3.94155e-05
-4.71857e-06
1.8945e-05
5.87691e-06
-3.434e-06
2.51493e-05
-2.00652e-06
3.18282e-05
3.7409e-05
-5.3723e-06
1.76924e-05
6.62496e-06
-3.9692e-06
2.37462e-05
-2.3483e-06
3.02073e-05
3.50607e-05
-6.09966e-06
1.6369e-05
7.423e-06
-4.58728e-06
2.22339e-05
-2.74916e-06
2.83692e-05
3.23116e-05
-6.93574e-06
1.50033e-05
8.3015e-06
-5.31917e-06
2.06173e-05
-3.22493e-06
2.6275e-05
2.90866e-05
-7.91662e-06
1.36256e-05
9.29433e-06
-6.19057e-06
1.88912e-05
-3.78339e-06
2.38678e-05
2.53033e-05
-9.06553e-06
1.22609e-05
1.04302e-05
-7.20279e-06
1.70285e-05
-4.4087e-06
2.10737e-05
2.08945e-05
-1.03597e-05
1.09111e-05
1.17095e-05
-8.29415e-06
1.49629e-05
-5.031e-06
1.78105e-05
1.58635e-05
-1.16671e-05
9.51606e-06
1.30622e-05
-9.27034e-06
1.25661e-05
-5.44505e-06
1.39852e-05
1.04185e-05
-1.26315e-05
7.85087e-06
1.42967e-05
-9.66398e-06
9.59859e-06
-5.19794e-06
9.5192e-06
5.22055e-06
-1.25903e-05
5.47205e-06
1.49691e-05
-8.76242e-06
5.77068e-06
-3.92901e-06
4.6858e-06
1.29154e-06
-1.1748e-05
1.72201e-05
-5.97733e-06
-1.29154e-06
-1.52646e-05
9.36945e-05
-2.87368e-05
0.00010668
-4.07244e-05
0.000115481
-5.17403e-05
0.000120224
-6.22138e-05
0.000122103
-7.23568e-05
0.000122151
-8.22698e-05
0.000120897
-9.19867e-05
0.000118622
-0.000101477
0.000115464
-0.000110649
0.000111471
-0.000119355
0.000106642
-0.000127409
0.000100963
-0.000134609
9.44537e-05
-0.000140767
8.71956e-05
-0.000145743
7.93511e-05
-0.000149468
7.11545e-05
-0.000151956
6.28822e-05
-0.000153295
5.48119e-05
-0.000153626
4.71848e-05
-0.000153118
4.01794e-05
-0.000151943
3.39034e-05
-0.000150254
2.83978e-05
-0.000148179
2.36506e-05
-0.000145809
1.96116e-05
-0.000143201
1.62079e-05
-0.000140379
1.33539e-05
-0.00013733
1.09565e-05
-0.000134003
8.92198e-06
-0.000130314
7.19624e-06
-0.000126155
5.63866e-06
-0.000121396
4.17434e-06
-0.000115888
2.72396e-06
-0.000109358
1.22004e-06
-0.000101506
-4.28155e-07
-9.20211e-05
-2.4215e-06
-4.72906e-06
-1.44703e-05
0.000108165
-2.74516e-05
0.000119662
-3.91588e-05
0.000127188
-4.99958e-05
0.000131061
-6.03033e-05
0.000132411
-7.02642e-05
0.000132111
-7.99578e-05
0.00013059
-8.93911e-05
0.000128055
-9.84983e-05
0.000124571
-0.000107139
0.000120111
-0.000115104
0.000114607
-0.00012214
0.000107999
-0.000127987
0.000100301
-0.000132427
9.16355e-05
-0.000135329
8.22525e-05
-0.000136673
7.24991e-05
-0.000136554
6.27624e-05
-0.000135146
5.34039e-05
-0.000132669
4.47083e-05
-0.000129349
3.6859e-05
-0.000125384
2.99382e-05
-0.00012093
2.39443e-05
-0.000116096
1.88167e-05
-0.000110943
1.44585e-05
-0.000105491
1.07558e-05
-9.97274e-05
7.59029e-06
-9.36124e-05
4.8414e-06
-8.70934e-05
2.40305e-06
-8.00856e-05
1.8835e-07
-7.2545e-05
-1.90187e-06
-6.44445e-05
-3.92621e-06
-5.57904e-05
-5.93009e-06
-4.65699e-05
-8.00049e-06
-3.69203e-05
-1.00778e-05
-2.72914e-05
-1.20504e-05
-1.3861e-05
-1.36734e-05
0.000121838
-2.60741e-05
0.000132062
-3.74122e-05
0.000138526
-4.79676e-05
0.000141617
-5.80164e-05
0.000142459
-6.77013e-05
0.000141796
-7.70686e-05
0.000139957
-8.60861e-05
0.000137073
-9.46359e-05
0.000133121
-0.00010251
0.000127986
-0.000109427
0.000121524
-0.000115068
0.00011364
-0.00011914
0.000104373
-0.000121444
9.39401e-05
-0.000121926
8.27348e-05
-0.000120684
7.12568e-05
-0.000117937
6.00155e-05
-0.000113974
4.94403e-05
-0.000109092
3.98269e-05
-0.00010356
3.13265e-05
-9.75866e-05
2.39652e-05
-9.13217e-05
1.76795e-05
-8.48571e-05
1.2352e-05
-7.82407e-05
7.84215e-06
-7.14916e-05
4.00667e-06
-6.46196e-05
7.18243e-07
-5.76445e-05
-2.13366e-06
-5.06011e-05
-4.64042e-06
-4.35352e-05
-6.87749e-06
-3.65193e-05
-8.91779e-06
-2.96355e-05
-1.08101e-05
-2.30832e-05
-1.24823e-05
-1.71414e-05
-1.39423e-05
-1.19011e-05
-1.53181e-05
-7.39514e-06
-1.65564e-05
-1.7571e-05
-1.28746e-05
0.000134713
-2.46662e-05
0.000143854
-3.55327e-05
0.000149393
-4.57091e-05
0.000151793
-5.54053e-05
0.000152156
-6.47131e-05
0.000151104
-7.36365e-05
0.000148881
-8.20931e-05
0.000145529
-8.98998e-05
0.000140928
-9.67752e-05
0.000134861
-0.00010237
0.000127118
-0.000106331
0.000117601
-0.000108391
0.000106432
-0.000108443
9.3992e-05
-0.000106573
8.08648e-05
-0.000103033
6.7717e-05
-9.81752e-05
5.51579e-05
-9.23756e-05
4.36407e-05
-8.59752e-05
3.34265e-05
-7.92475e-05
2.45988e-05
-7.23904e-05
1.71081e-05
-6.55352e-05
1.08243e-05
-5.87654e-05
5.58221e-06
-5.21403e-05
1.21703e-06
-4.57194e-05
-2.41415e-06
-3.95626e-05
-5.43862e-06
-3.37259e-05
-7.97032e-06
-2.82547e-05
-1.01116e-05
-2.31952e-05
-1.1937e-05
-1.8606e-05
-1.3507e-05
-1.45489e-05
-1.48671e-05
-1.10145e-05
-1.60167e-05
-7.98267e-06
-1.69741e-05
-5.47259e-06
-1.78281e-05
-3.45129e-06
-1.85777e-05
-1.91849e-05
-1.20777e-05
0.00014679
-2.32326e-05
0.000155009
-3.35466e-05
0.000159707
-4.32651e-05
0.000161511
-5.25199e-05
0.000161411
-6.13502e-05
0.000159934
-6.97134e-05
0.000157244
-7.74688e-05
0.000153285
-8.43653e-05
0.000147824
-9.00558e-05
0.000140552
-9.41533e-05
0.000131216
-9.63247e-05
0.000119773
-9.63939e-05
0.000106502
-9.44039e-05
9.2002e-05
-9.06084e-05
7.70693e-05
-8.54018e-05
6.25104e-05
-7.9227e-05
4.89831e-05
-7.24989e-05
3.69125e-05
-6.55595e-05
2.64871e-05
-5.8665e-05
1.77043e-05
-5.19948e-05
1.04379e-05
-4.56729e-05
4.50242e-06
-3.97924e-05
-2.98359e-07
-3.4419e-05
-4.15638e-06
-2.95764e-05
-7.25667e-06
-2.52474e-05
-9.7677e-06
-2.139e-05
-1.18276e-05
-1.79582e-05
-1.35434e-05
-1.49089e-05
-1.49863e-05
-1.2212e-05
-1.62039e-05
-9.84724e-06
-1.7232e-05
-7.76877e-06
-1.80952e-05
-5.93998e-06
-1.88029e-05
-4.37324e-06
-1.93949e-05
-3.04973e-06
-1.99012e-05
-2.03264e-05
-1.1277e-05
0.000158067
-2.17636e-05
0.000165496
-3.14897e-05
0.000169433
-4.06803e-05
0.000170702
-4.94107e-05
0.000170141
-5.76725e-05
0.000168196
-6.53728e-05
0.000164944
-7.23113e-05
0.000160223
-7.81765e-05
0.000153689
-8.25808e-05
0.000144956
-8.51441e-05
0.000133779
-8.56108e-05
0.000120239
-8.39472e-05
0.000104838
-8.03659e-05
8.84207e-05
-7.52691e-05
7.19724e-05
-6.91458e-05
5.63872e-05
-6.24776e-05
4.23148e-05
-5.56777e-05
3.01127e-05
-4.90687e-05
1.98781e-05
-4.28853e-05
1.15209e-05
-3.72879e-05
4.8405e-06
-3.23729e-05
-4.12595e-07
-2.81533e-05
-4.51792e-06
-2.45569e-05
-7.75282e-06
-2.14625e-05
-1.0351e-05
-1.87462e-05
-1.2484e-05
-1.63092e-05
-1.42647e-05
-1.40874e-05
-1.57652e-05
-1.20417e-05
-1.70321e-05
-1.01545e-05
-1.80911e-05
-8.42501e-06
-1.89614e-05
-6.85264e-06
-1.96675e-05
-5.42635e-06
-2.02292e-05
-4.14838e-06
-2.06728e-05
-3.0243e-06
-2.10253e-05
-2.13173e-05
-1.04747e-05
0.000168542
-2.02694e-05
0.00017529
-2.93818e-05
0.000178545
-3.79895e-05
0.00017931
-4.61297e-05
0.000178281
-5.37505e-05
0.000175817
-6.07099e-05
0.000171904
-6.6755e-05
0.000166268
-7.15331e-05
0.000158467
-7.465e-05
0.000148073
-7.57802e-05
0.000134909
-7.47895e-05
0.000119249
-7.1805e-05
0.000101853
-6.71912e-05
8.38069e-05
-6.14516e-05
6.62329e-05
-5.51174e-05
5.00529e-05
-4.86677e-05
3.58651e-05
-4.24927e-05
2.39377e-05
-3.68831e-05
1.42685e-05
-3.20266e-05
6.66435e-06
-2.7997e-05
8.10951e-07
-2.47312e-05
-3.67846e-06
-2.20598e-05
-7.18926e-06
-1.97938e-05
-1.00188e-05
-1.77792e-05
-1.23656e-05
-1.59136e-05
-1.43497e-05
-1.41401e-05
-1.60381e-05
-1.24369e-05
-1.74684e-05
-1.08016e-05
-1.86675e-05
-9.23937e-06
-1.96532e-05
-7.76006e-06
-2.04408e-05
-6.37985e-06
-2.10477e-05
-5.10825e-06
-2.15008e-05
-3.95266e-06
-2.18284e-05
-2.91967e-06
-2.20583e-05
-2.22262e-05
-9.67684e-06
0.000178219
-1.87683e-05
0.000184382
-2.72427e-05
0.00018702
-3.52293e-05
0.000187296
-4.27329e-05
0.000185785
-4.96633e-05
0.000182748
-5.58357e-05
0.000178076
-6.09587e-05
0.000171391
-6.46634e-05
0.000162172
-6.65859e-05
0.000149996
-6.64924e-05
0.000134816
-6.43895e-05
0.000117146
-6.05534e-05
9.80173e-05
-5.54587e-05
7.87123e-05
-4.96592e-05
6.04333e-05
-4.36846e-05
4.40784e-05
-3.79848e-05
3.01653e-05
-3.29032e-05
1.88561e-05
-2.86545e-05
1.00198e-05
-2.52936e-05
3.30342e-06
-2.27031e-05
-1.77957e-06
-2.06542e-05
-5.72731e-06
-1.89252e-05
-8.91831e-06
-1.73569e-05
-1.15871e-05
-1.58572e-05
-1.38653e-05
-1.43796e-05
-1.58273e-05
-1.29063e-05
-1.75113e-05
-1.14372e-05
-1.89375e-05
-9.98546e-06
-2.01192e-05
-8.56858e-06
-2.10701e-05
-7.20468e-06
-2.18047e-05
-5.91505e-06
-2.23374e-05
-4.72007e-06
-2.26958e-05
-3.63614e-06
-2.29124e-05
-2.67358e-06
-2.30208e-05
-2.30593e-05
-8.89051e-06
0.00018711
-1.72759e-05
0.000192767
-2.50963e-05
0.00019484
-3.24389e-05
0.000194639
-3.92792e-05
0.000192625
-4.54949e-05
0.000188963
-5.08685e-05
0.00018345
-5.50881e-05
0.000175611
-5.77955e-05
0.000164879
-5.86878e-05
0.000150888
-5.76432e-05
0.000133771
-5.48041e-05
0.000114307
-5.05625e-05
9.37756e-05
-4.54562e-05
7.3606e-05
-4.00442e-05
5.50213e-05
-3.48222e-05
3.88564e-05
-3.01803e-05
2.55234e-05
-2.63687e-05
1.50445e-05
-2.34528e-05
7.10392e-06
-2.13013e-05
1.15193e-06
-1.9662e-05
-3.41885e-06
-1.82952e-05
-7.09413e-06
-1.70422e-05
-1.01713e-05
-1.58127e-05
-1.28166e-05
-1.45611e-05
-1.51169e-05
-1.32718e-05
-1.71166e-05
-1.19459e-05
-1.88373e-05
-1.0593e-05
-2.02904e-05
-9.2317e-06
-2.14806e-05
-7.88618e-06
-2.24156e-05
-6.58344e-06
-2.31074e-05
-5.34978e-06
-2.3571e-05
-4.21102e-06
-2.38345e-05
-3.18906e-06
-2.39343e-05
-2.29853e-06
-2.39113e-05
-2.3809e-05
-8.12227e-06
0.000195232
-1.58064e-05
0.000200451
-2.29683e-05
0.000202002
-2.96586e-05
0.000201329
-3.58277e-05
0.000198794
-4.13288e-05
0.000194464
-4.59236e-05
0.000188045
-4.9299e-05
0.000178986
-5.11316e-05
0.000166712
-5.11995e-05
0.000150956
-4.94953e-05
0.000132067
-4.62728e-05
0.000111084
-4.19971e-05
8.95e-05
-3.72268e-05
6.88357e-05
-3.24916e-05
5.02861e-05
-2.82217e-05
3.45864e-05
-2.47092e-05
2.20109e-05
-2.20605e-05
1.23959e-05
-2.01712e-05
5.21455e-06
-1.87952e-05
-2.24074e-07
-1.76832e-05
-4.53082e-06
-1.6668e-05
-8.1093e-06
-1.56546e-05
-1.11847e-05
-1.45957e-05
-1.38754e-05
-1.34712e-05
-1.62415e-05
-1.22787e-05
-1.8309e-05
-1.10273e-05