/*--------------------------------*- C++ -*----------------------------------*\
| =========                 |                                                 |
| \\      /  F ield         | OpenFOAM: The Open Source CFD Toolbox           |
|  \\    /   O peration     | Version:  v2012                                 |
|   \\  /    A nd           | Website:  www.openfoam.com                      |
|    \\/     M anipulation  |                                                 |
\*---------------------------------------------------------------------------*/
FoamFile
{
    version     2.0;
    format      ascii;
    class       volVectorField;
    location    "623";
    object      U;
}
// * * * * * * * * * * * * * * * * * * * * * * * * * * * * * * * * * * * * * //

dimensions      [0 1 -1 0 0 0 0];


internalField   nonuniform List<vector> 
6108
(
(0.000385861 -0.992268 0)
(0.000341526 -0.992827 0)
(0.000309286 -0.993305 0)
(0.000287239 -0.993725 0)
(0.000273142 -0.994104 0)
(0.00026526 -0.994458 0)
(0.000262196 -0.994797 0)
(0.000262982 -0.995129 0)
(0.000266928 -0.995459 0)
(0.00027385 -0.995793 0)
(0.000283553 -0.996133 0)
(0.000295993 -0.996485 0)
(0.00031115 -0.996852 0)
(0.000328751 -0.997237 0)
(0.000347963 -0.997644 0)
(0.000366724 -0.998078 0)
(0.000379957 -0.998545 0)
(0.000375296 -0.99903 0)
(0.000304593 -0.999462 0)
(7.62269e-05 -0.999755 0)
(0.000631062 -0.999107 0)
(0.000516109 -0.999358 0)
(0.000432878 -0.999534 0)
(0.000375028 -0.999658 0)
(0.000336428 -0.999745 0)
(0.000312188 -0.999808 0)
(0.000298323 -0.999855 0)
(0.000291994 -0.999892 0)
(0.000290792 -0.999923 0)
(0.000294663 -0.999951 0)
(0.000302908 -0.999976 0)
(0.000315087 -1 0)
(0.000330928 -1.00003 0)
(0.000350009 -1.00006 0)
(0.000371517 -1.00009 0)
(0.000393297 -1.00012 0)
(0.000407931 -1.00015 0)
(0.000413775 -1.00016 0)
(0.000366203 -1.00013 0)
(0.000197481 -1.00003 0)
(0.000820876 -1.00108 0)
(0.000637263 -1.00122 0)
(0.000505817 -1.00129 0)
(0.000414977 -1.00131 0)
(0.000354023 -1.0013 0)
(0.00031439 -1.00128 0)
(0.000289707 -1.00123 0)
(0.000276661 -1.00117 0)
(0.000270343 -1.00111 0)
(0.000270442 -1.00104 0)
(0.000275561 -1.00097 0)
(0.000284811 -1.00089 0)
(0.000297732 -1.00081 0)
(0.000313729 -1.00072 0)
(0.000330062 -1.00062 0)
(0.000339927 -1.00052 0)
(0.000344804 -1.0004 0)
(0.000334582 -1.00028 0)
(0.000277989 -1.00014 0)
(0.000134725 -1.00002 0)
(0.000940206 -1.00203 0)
(0.000691212 -1.00209 0)
(0.000515905 -1.00209 0)
(0.00039677 -1.00205 0)
(0.000315993 -1.00198 0)
(0.000263041 -1.0019 0)
(0.000228766 -1.00181 0)
(0.000207836 -1.00171 0)
(0.000196594 -1.0016 0)
(0.000192149 -1.00148 0)
(0.000192717 -1.00136 0)
(0.000197174 -1.00123 0)
(0.000204707 -1.00109 0)
(0.000214329 -1.00095 0)
(0.000223981 -1.00079 0)
(0.000230134 -1.00063 0)
(0.000230181 -1.00046 0)
(0.000213926 -1.00028 0)
(0.000165136 -1.00012 0)
(6.94784e-05 -1.00002 0)
(0.000996534 -1.00256 0)
(0.000689534 -1.00254 0)
(0.000478582 -1.00248 0)
(0.000333664 -1.00239 0)
(0.000238662 -1.00229 0)
(0.000178912 -1.00218 0)
(0.000137581 -1.00206 0)
(0.00011084 -1.00193 0)
(9.39572e-05 -1.0018 0)
(8.38441e-05 -1.00166 0)
(7.83845e-05 -1.00151 0)
(7.62266e-05 -1.00136 0)
(7.64387e-05 -1.0012 0)
(7.8216e-05 -1.00103 0)
(8.04489e-05 -1.00085 0)
(8.15708e-05 -1.00066 0)
(8.02026e-05 -1.00046 0)
(7.3008e-05 -1.00027 0)
(5.4476e-05 -1.0001 0)
(2.15258e-05 -1.00001 0)
(0.000968411 -1.00285 0)
(0.000618659 -1.00273 0)
(0.000392798 -1.0026 0)
(0.000241426 -1.00247 0)
(0.000142154 -1.00234 0)
(7.64108e-05 -1.00221 0)
(3.18573e-05 -1.00208 0)
(1.56339e-06 -1.00195 0)
(-1.94346e-05 -1.00181 0)
(-3.44481e-05 -1.00167 0)
(-4.57151e-05 -1.00152 0)
(-5.46895e-05 -1.00137 0)
(-6.22855e-05 -1.0012 0)
(-6.89314e-05 -1.00103 0)
(-7.43467e-05 -1.00085 0)
(-7.75824e-05 -1.00066 0)
(-7.76748e-05 -1.00046 0)
(-7.14974e-05 -1.00027 0)
(-5.3692e-05 -1.0001 0)
(-2.12691e-05 -1.00001 0)
(0.000837367 -1.00287 0)
(0.000492384 -1.00263 0)
(0.000264322 -1.00245 0)
(0.000124508 -1.00229 0)
(3.08066e-05 -1.00214 0)
(-3.27606e-05 -1.00201 0)
(-7.58239e-05 -1.00188 0)
(-0.000106484 -1.00175 0)
(-0.000129351 -1.00163 0)
(-0.000147541 -1.0015 0)
(-0.000163194 -1.00137 0)
(-0.000177716 -1.00124 0)
(-0.000191928 -1.0011 0)
(-0.00020595 -1.00095 0)
(-0.000218466 -1.00079 0)
(-0.000226529 -1.00063 0)
(-0.000227919 -1.00046 0)
(-0.000212589 -1.00028 0)
(-0.000164474 -1.00012 0)
(-6.92621e-05 -1.00002 0)
(0.000553127 -1.00246 0)
(0.000296349 -1.00208 0)
(0.000104237 -1.00186 0)
(-4.71592e-06 -1.00168 0)
(-7.9735e-05 -1.00155 0)
(-0.000131142 -1.00144 0)
(-0.000167752 -1.00134 0)
(-0.000194954 -1.00125 0)
(-0.000216475 -1.00116 0)
(-0.000234898 -1.00107 0)
(-0.000252079 -1.00099 0)
(-0.000269345 -1.0009 0)
(-0.000287605 -1.00081 0)
(-0.000307152 -1.00072 0)
(-0.000325695 -1.00062 0)
(-0.000336988 -1.00052 0)
(-0.000342973 -1.00041 0)
(-0.000333532 -1.00028 0)
(-0.00027752 -1.00014 0)
(-0.000134585 -1.00002 0)
(3.96007e-05 -1.00118 0)
(8.78014e-05 -1.00041 0)
(-4.11091e-05 -1.00026 0)
(-0.00010341 -1.00013 0)
(-0.000153822 -1.00006 0)
(-0.000189583 -1.00001 0)
(-0.000216242 -0.999992 0)
(-0.000237103 -0.999983 0)
(-0.000254725 -0.999983 0)
(-0.000270977 -0.999989 0)
(-0.000287296 -1 0)
(-0.000304782 -1.00002 0)
(-0.000324144 -1.00004 0)
(-0.000345559 -1.00006 0)
(-0.000368621 -1.00009 0)
(-0.000391446 -1.00012 0)
(-0.000406715 -1.00015 0)
(-0.000412858 -1.00016 0)
(-0.00036614 -1.00013 0)
(-0.000197449 -1.00003 0)
(-0.00035031 -0.996836 0)
(-5.19682e-05 -0.994034 0)
(-0.000152036 -0.99414 0)
(-0.000171465 -0.994296 0)
(-0.000192767 -0.994486 0)
(-0.000210535 -0.994712 0)
(-0.000225258 -0.994965 0)
(-0.000238196 -0.995239 0)
(-0.000250435 -0.995531 0)
(-0.000262873 -0.995839 0)
(-0.000276252 -0.996163 0)
(-0.000291163 -0.996504 0)
(-0.000307967 -0.996864 0)
(-0.000326611 -0.997245 0)
(-0.000346513 -0.997649 0)
(-0.000365783 -0.998081 0)
(-0.00037938 -0.998546 0)
(-0.000375013 -0.999031 0)
(-0.000304564 -0.999462 0)
(-7.62159e-05 -0.999755 0)
(0.000729977 -0.988582 0)
(0.000620022 -0.989786 0)
(0.00052579 -0.99078 0)
(0.000447103 -0.991596 0)
(0.00147159 -0.996726 0)
(0.00120552 -0.997592 0)
(0.0009767 -0.998259 0)
(0.00078404 -0.998752 0)
(0.00219518 -0.999146 0)
(0.00176296 -0.999899 0)
(0.00138808 -1.00046 0)
(0.00107048 -1.00084 0)
(0.00285019 -1.00038 0)
(0.00225774 -1.00106 0)
(0.00173811 -1.00156 0)
(0.00129005 -1.00187 0)
(0.00345088 -1.00114 0)
(0.0027068 -1.00178 0)
(0.00204516 -1.00224 0)
(0.0014535 -1.00249 0)
(0.00403847 -1.00153 0)
(0.00315156 -1.00219 0)
(0.00234375 -1.00265 0)
(0.00156773 -1.00286 0)
(0.00474824 -1.00133 0)
(0.00365998 -1.00217 0)
(0.00263559 -1.00278 0)
(0.00160954 -1.00302 0)
(0.00563638 -0.999521 0)
(0.00408401 -1.0011 0)
(0.00286476 -1.00224 0)
(0.00177464 -1.00277 0)
(0.00592449 -0.991423 0)
(0.00443734 -0.995576 0)
(0.00382294 -0.998603 0)
(0.00305108 -1.00077 0)
(0.0231195 -0.933141 0)
(0.0203558 -0.949224 0)
(0.0169828 -0.964168 0)
(0.00957001 -0.982461 0)
(-0.0257117 0.0124209 0)
(-0.020759 0.0442377 0)
(-0.00570482 0.0441957 0)
(0.00759757 0.0260087 0)
(0.0191829 -0.0117599 0)
(0.0322205 -0.0744503 0)
(0.0397105 -0.16392 0)
(0.0392237 -0.249586 0)
(0.0357271 -0.326216 0)
(0.0325812 -0.397063 0)
(0.0298317 -0.462059 0)
(0.0273209 -0.52169 0)
(0.0250039 -0.576346 0)
(0.0228356 -0.626345 0)
(0.0207857 -0.671937 0)
(0.0188351 -0.713331 0)
(0.0169747 -0.750714 0)
(0.0152026 -0.784271 0)
(0.0135224 -0.814191 0)
(0.0119409 -0.840677 0)
(0.0104688 -0.863948 0)
(0.00912708 -0.884265 0)
(0.00791087 -0.90187 0)
(0.00680617 -0.917015 0)
(0.00581649 -0.929949 0)
(0.00493915 -0.940916 0)
(0.00417009 -0.950154 0)
(0.00350361 -0.957889 0)
(0.00293282 -0.964335 0)
(0.00244851 -0.969688 0)
(0.00203938 -0.974118 0)
(0.00170206 -0.977777 0)
(0.00142604 -0.980802 0)
(0.00119957 -0.983311 0)
(0.00101344 -0.985396 0)
(0.000859217 -0.987133 0)
(-0.0450142 0.00156243 0)
(-0.0105976 0.0221855 0)
(0.0194246 0.00574235 0)
(0.0432854 -0.0406816 0)
(0.0695242 -0.111233 0)
(0.090261 -0.191663 0)
(0.0965793 -0.269092 0)
(0.0920535 -0.333027 0)
(0.0850602 -0.397112 0)
(0.0784078 -0.458001 0)
(0.0721658 -0.515133 0)
(0.0663562 -0.568435 0)
(0.0609036 -0.617907 0)
(0.0557365 -0.663598 0)
(0.0508022 -0.705568 0)
(0.046071 -0.743881 0)
(0.0415336 -0.778619 0)
(0.037197 -0.809883 0)
(0.0330788 -0.837801 0)
(0.0292016 -0.86253 0)
(0.0255868 -0.884254 0)
(0.0222482 -0.903177 0)
(0.0191961 -0.919501 0)
(0.0164372 -0.933474 0)
(0.0139717 -0.945337 0)
(0.0117931 -0.955333 0)
(0.0098895 -0.96369 0)
(0.00824487 -0.97063 0)
(0.00684067 -0.976358 0)
(0.0056556 -0.981058 0)
(0.00465896 -0.984858 0)
(0.00383319 -0.987984 0)
(0.00316073 -0.990522 0)
(0.00261028 -0.99259 0)
(0.00215846 -0.99427 0)
(0.00178454 -0.995632 0)
(-0.0514919 -0.0146585 0)
(0.0120659 -0.0114112 0)
(0.0553053 -0.0524603 0)
(0.0946034 -0.115411 0)
(0.127705 -0.187721 0)
(0.14571 -0.255823 0)
(0.147369 -0.316152 0)
(0.140838 -0.372729 0)
(0.132508 -0.429728 0)
(0.123675 -0.484601 0)
(0.11491 -0.53719 0)
(0.10642 -0.58704 0)
(0.0982091 -0.633893 0)
(0.0902453 -0.677575 0)
(0.0825006 -0.717976 0)
(0.0749695 -0.755039 0)
(0.0676696 -0.788753 0)
(0.0606371 -0.819151 0)
(0.0539193 -0.846316 0)
(0.0475667 -0.87037 0)
(0.0416255 -0.891475 0)
(0.0361319 -0.909826 0)
(0.031112 -0.92564 0)
(0.0265793 -0.93915 0)
(0.0225337 -0.950593 0)
(0.0189638 -0.960204 0)
(0.0158489 -0.968211 0)
(0.0131602 -0.974828 0)
(0.0108644 -0.980258 0)
(0.00892795 -0.984687 0)
(0.00731964 -0.988279 0)
(0.00599553 -0.991186 0)
(0.0049119 -0.993532 0)
(0.00402782 -0.995426 0)
(0.00330251 -0.996953 0)
(0.00270087 -0.998176 0)
(-0.0282812 -0.0287104 0)
(0.0433144 -0.0478113 0)
(0.100545 -0.10346 0)
(0.148813 -0.169629 0)
(0.180761 -0.233979 0)
(0.193419 -0.290784 0)
(0.192143 -0.34344 0)
(0.185057 -0.396117 0)
(0.175945 -0.448722 0)
(0.165717 -0.500127 0)
(0.155147 -0.549979 0)
(0.144535 -0.59773 0)
(0.133988 -0.643004 0)
(0.123541 -0.685507 0)
(0.11322 -0.725025 0)
(0.103063 -0.761416 0)
(0.093131 -0.794601 0)
(0.0835011 -0.824564 0)
(0.0742602 -0.851352 0)
(0.0654944 -0.875065 0)
(0.0572798 -0.895853 0)
(0.0496771 -0.913903 0)
(0.0427275 -0.929431 0)
(0.0364523 -0.942668 0)
(0.0308528 -0.953849 0)
(0.0259139 -0.963212 0)
(0.0216077 -0.970982 0)
(0.0178955 -0.977378 0)
(0.0147312 -0.982601 0)
(0.0120657 -0.986835 0)
(0.00984984 -0.990245 0)
(0.00803025 -0.992982 0)
(0.00654887 -0.995176 0)
(0.00534497 -0.99694 0)
(0.00435935 -0.998356 0)
(0.00354072 -0.999487 0)
(0.00403756 -0.0403606 0)
(0.0844996 -0.0765995 0)
(0.149856 -0.138904 0)
(0.198972 -0.20278 0)
(0.226191 -0.2598 0)
(0.234936 -0.310938 0)
(0.232873 -0.360658 0)
(0.225908 -0.410873 0)
(0.216373 -0.460898 0)
(0.205294 -0.510212 0)
(0.193444 -0.558336 0)
(0.181176 -0.604744 0)
(0.168671 -0.649011 0)
(0.156036 -0.690779 0)
(0.143356 -0.729769 0)
(0.130726 -0.76577 0)
(0.118264 -0.798652 0)
(0.1061 -0.828359 0)
(0.0943718 -0.85491 0)
(0.083212 -0.878393 0)
(0.0727343 -0.898951 0)
(0.0630277 -0.916773 0)
(0.0541525 -0.932076 0)
(0.0461391 -0.945097 0)
(0.0389912 -0.956075 0)
(0.0326897 -0.965247 0)
(0.0271989 -0.972842 0)
(0.0224698 -0.979074 0)
(0.018444 -0.984146 0)
(0.015058 -0.988238 0)
(0.0122471 -0.991513 0)
(0.00994565 -0.994123 0)
(0.00808141 -0.996206 0)
(0.00657345 -0.997878 0)
(0.00534205 -0.999221 0)
(0.0043178 -1.00029 0)
(0.0481124 -0.0467435 0)
(0.133324 -0.0955375 0)
(0.199944 -0.160434 0)
(0.245096 -0.220741 0)
(0.267498 -0.273456 0)
(0.274126 -0.322512 0)
(0.272033 -0.371094 0)
(0.265197 -0.419885 0)
(0.255383 -0.46846 0)
(0.243673 -0.516493 0)
(0.230783 -0.563524 0)
(0.217094 -0.609071 0)
(0.202837 -0.652691 0)
(0.18817 -0.693986 0)
(0.173238 -0.732622 0)
(0.158199 -0.768339 0)
(0.143234 -0.800964 0)
(0.128541 -0.830416 0)
(0.11432 -0.856702 0)
(0.100758 -0.879911 0)
(0.0880113 -0.900198 0)
(0.0762014 -0.917765 0)
(0.0654076 -0.932843 0)
(0.0556687 -0.945678 0)
(0.0469879 -0.956516 0)
(0.0393398 -0.965593 0)
(0.0326797 -0.97313 0)
(0.026948 -0.979336 0)
(0.0220721 -0.984403 0)
(0.0179721 -0.988503 0)
(0.01457 -0.991789 0)
(0.0117901 -0.99441 0)
(0.00955105 -0.996508 0)
(0.00775094 -0.998202 0)
(0.0062873 -0.999574 0)
(0.00507079 -1.00067 0)
(0.100021 -0.0503639 0)
(0.186532 -0.105869 0)
(0.249304 -0.171432 0)
(0.288925 -0.22886 0)
(0.307462 -0.279764 0)
(0.312829 -0.328366 0)
(0.310638 -0.376513 0)
(0.303734 -0.424553 0)
(0.293635 -0.472312 0)
(0.281355 -0.519551 0)
(0.267532 -0.565873 0)
(0.252545 -0.610829 0)
(0.236643 -0.653963 0)
(0.220021 -0.694838 0)
(0.202877 -0.733074 0)
(0.185436 -0.76837 0)
(0.167956 -0.800527 0)
(0.150715 -0.829457 0)
(0.133986 -0.855183 0)
(0.118019 -0.877825 0)
(0.10302 -0.897575 0)
(0.0891407 -0.914677 0)
(0.0764765 -0.929397 0)
(0.0650688 -0.942008 0)
(0.0549134 -0.952764 0)
(0.0459727 -0.961897 0)
(0.0381884 -0.969612 0)
(0.0314867 -0.976092 0)
(0.0257755 -0.981502 0)
(0.0209628 -0.985988 0)
(0.0169614 -0.989673 0)
(0.0136962 -0.992678 0)
(0.011095 -0.995143 0)
(0.00902767 -0.997187 0)
(0.00735579 -0.998881 0)
(0.00596086 -1.00026 0)
(0.159844 -0.0532735 0)
(0.240835 -0.110413 0)
(0.297555 -0.175273 0)
(0.331667 -0.230872 0)
(0.347154 -0.281317 0)
(0.351478 -0.330013 0)
(0.348968 -0.377993 0)
(0.341828 -0.425623 0)
(0.331392 -0.472873 0)
(0.318543 -0.519555 0)
(0.303829 -0.565318 0)
(0.28759 -0.60972 0)
(0.270066 -0.652271 0)
(0.251477 -0.692487 0)
(0.232076 -0.729933 0)
(0.212167 -0.76427 0)
(0.1921 -0.795287 0)
(0.172252 -0.822922 0)
(0.152989 -0.84725 0)
(0.134635 -0.868469 0)
(0.117448 -0.886866 0)
(0.101609 -0.902778 0)
(0.0872187 -0.916556 0)
(0.0743094 -0.928538 0)
(0.0628544 -0.939026 0)
(0.0527863 -0.948267 0)
(0.0440166 -0.956456 0)
(0.0364571 -0.963731 0)
(0.0300424 -0.970147 0)
(0.0246378 -0.975823 0)
(0.020109 -0.980788 0)
(0.0164039 -0.985092 0)
(0.0134538 -0.988836 0)
(0.0110745 -0.992145 0)
(0.00906374 -0.995045 0)
(0.00728879 -0.997513 0)
(0.223131 -0.0544688 0)
(0.294455 -0.11079 0)
(0.344749 -0.174508 0)
(0.373929 -0.229074 0)
(0.386875 -0.279514 0)
(0.39014 -0.328351 0)
(0.387119 -0.376202 0)
(0.379617 -0.423513 0)
(0.368768 -0.470318 0)
(0.355302 -0.516451 0)
(0.339655 -0.561556 0)
(0.322099 -0.605152 0)
(0.302847 -0.646677 0)
(0.282136 -0.685558 0)
(0.260282 -0.721279 0)
(0.237688 -0.753452 0)
(0.214834 -0.781863 0)
(0.192225 -0.8065 0)
(0.170349 -0.827544 0)
(0.149625 -0.845335 0)
(0.130371 -0.860324 0)
(0.112795 -0.873017 0)
(0.0969921 -0.883931 0)
(0.0829619 -0.893552 0)
(0.070627 -0.902311 0)
(0.0598548 -0.910563 0)
(0.0504827 -0.918582 0)
(0.0423398 -0.926574 0)
(0.0352548 -0.934658 0)
(0.029137 -0.942714 0)
(0.0240012 -0.950593 0)
(0.0196788 -0.958256 0)
(0.016088 -0.965706 0)
(0.0129422 -0.972976 0)
(0.0101842 -0.979852 0)
(0.00784872 -0.98608 0)
(0.283701 -0.05341 0)
(0.346988 -0.108203 0)
(0.3911 -0.170866 0)
(0.415925 -0.22478 0)
(0.426654 -0.275168 0)
(0.428782 -0.323965 0)
(0.425091 -0.371566 0)
(0.417096 -0.418456 0)
(0.405719 -0.464676 0)
(0.391508 -0.510031 0)
(0.374764 -0.554097 0)
(0.355659 -0.596281 0)
(0.334359 -0.635877 0)
(0.311122 -0.672154 0)
(0.286343 -0.704466 0)
(0.260568 -0.73235 0)
(0.234452 -0.755597 0)
(0.208684 -0.77428 0)
(0.183916 -0.78873 0)
(0.16069 -0.799475 0)
(0.139401 -0.807162 0)
(0.120284 -0.812481 0)
(0.103425 -0.81611 0)
(0.0887944 -0.818676 0)
(0.0762726 -0.820739 0)
(0.0656886 -0.822784 0)
(0.0568451 -0.825243 0)
(0.0495323 -0.828547 0)
(0.0435117 -0.833159 0)
(0.038461 -0.839458 0)
(0.0341463 -0.847614 0)
(0.0304397 -0.857752 0)
(0.0280447 -0.86957 0)
(0.0268471 -0.883266 0)
(0.0259401 -0.898647 0)
(0.0248439 -0.915429 0)
(0.00587139 -0.351033 0)
(-0.00429494 -0.282145 0)
(-0.0242047 -0.213813 0)
(-0.0400368 -0.152863 0)
(-0.0509473 -0.0639555 0)
(-0.0560799 -0.0248044 0)
(-0.0721252 0.00683438 0)
(-0.117443 0.012169 0)
(-0.0688924 -0.00875335 0)
(-0.0734026 0.00390484 0)
(-0.0821653 0.0128463 0)
(-0.0984218 0.00831417 0)
(-0.076709 -0.00511391 0)
(-0.0791276 0.000712096 0)
(-0.0839884 0.00498925 0)
(-0.0915664 0.00237614 0)
(-0.0808072 -0.00641777 0)
(-0.0828273 -0.00203959 0)
(-0.0857636 0.00118229 0)
(-0.0889822 0.00106653 0)
(-0.0845751 -0.00734627 0)
(-0.0859521 -0.00354513 0)
(-0.0875229 -0.000731242 0)
(-0.0883626 0.000151454 0)
(-0.0879252 -0.0074517 0)
(-0.0886839 -0.00407037 0)
(-0.089307 -0.00155692 0)
(-0.0887286 -0.000184317 0)
(-0.0909147 -0.00685015 0)
(-0.0910846 -0.00388745 0)
(-0.0909829 -0.00171746 0)
(-0.089478 -0.000296927 0)
(-0.0935372 -0.00569207 0)
(-0.0931283 -0.0031845 0)
(-0.092416 -0.00143445 0)
(-0.0902466 -0.000177325 0)
(-0.0957625 -0.00408756 0)
(-0.0947681 -0.00208338 0)
(-0.0934999 -0.000837853 0)
(-0.0907843 0.000139893 0)
(-0.0975522 -0.00210952 0)
(-0.0959496 -0.000662298 0)
(-0.0941396 -1.50644e-06 0)
(-0.0909224 0.000562975 0)
(-0.098867 0.000196233 0)
(-0.096616 0.00103138 0)
(-0.0942442 0.00103477 0)
(-0.0905361 0.00108385 0)
(-0.0996661 0.00280047 0)
(-0.0967089 0.00296752 0)
(-0.0937304 0.00224286 0)
(-0.0895181 0.00164093 0)
(-0.0999102 0.00568347 0)
(-0.0961753 0.00512993 0)
(-0.0925281 0.00360699 0)
(-0.087771 0.00236958 0)
(-0.0995608 0.00883089 0)
(-0.0949658 0.00750456 0)
(-0.0905759 0.00511977 0)
(-0.0852009 0.00320118 0)
(-0.0985805 0.0122318 0)
(-0.0930306 0.0100821 0)
(-0.0878079 0.00678118 0)
(-0.0817205 0.00413297 0)
(-0.096934 0.0158744 0)
(-0.0903235 0.0128533 0)
(-0.0841625 0.0085911 0)
(-0.0772439 0.00517951 0)
(-0.0945879 0.019742 0)
(-0.0868018 0.0158042 0)
(-0.0795837 0.0105467 0)
(-0.071681 0.00635212 0)
(-0.0915113 0.023808 0)
(-0.0824285 0.0189108 0)
(-0.0740247 0.0126385 0)
(-0.0649402 0.00765835 0)
(-0.087676 0.0280301 0)
(-0.0771751 0.0221316 0)
(-0.0674615 0.014843 0)
(-0.0569627 0.00909145 0)
(-0.08305 0.0323399 0)
(-0.0710157 0.0253938 0)
(-0.0598988 0.0171038 0)
(-0.0477723 0.0105971 0)
(-0.0775784 0.0366313 0)
(-0.0638988 0.0285745 0)
(-0.0513178 0.0192866 0)
(-0.0373341 0.011978 0)
(-0.071192 0.0407499 0)
(-0.0557427 0.0315116 0)
(-0.0416233 0.0211724 0)
(-0.025311 0.0128156 0)
(-0.0639054 0.0444946 0)
(-0.0465354 0.0341024 0)
(-0.0308328 0.0228009 0)
(-0.0133998 0.0134943 0)
(-0.0554445 0.0479656 0)
(-0.0362085 0.0363515 0)
(-0.0189897 0.0242605 0)
(-0.000761199 0.0144142 0)
(-0.0457347 0.0514651 0)
(-0.024974 0.0384489 0)
(-0.00638647 0.0255187 0)
(0.0124614 0.0147588 0)
(-0.0349551 0.0548033 0)
(-0.0128062 0.0404434 0)
(0.00696147 0.0264513 0)
(0.0265692 0.0146694 0)
(-0.0232554 0.0575079 0)
(0.000262986 0.0422038 0)
(0.0208455 0.0272786 0)
(0.0409383 0.0150453 0)
(-0.0108438 0.0591801 0)
(0.013868 0.0433032 0)
(0.0351284 0.0277709 0)
(0.0570608 0.0154617 0)
(0.00209153 0.0595752 0)
(0.0277343 0.0434463 0)
(0.0495491 0.027575 0)
(0.0727567 0.0152595 0)
(0.015315 0.0585654 0)
(0.0416055 0.0426145 0)
(0.0639072 0.0268282 0)
(0.088214 0.0146355 0)
(0.0284755 0.0561268 0)
(0.0550724 0.0408372 0)
(0.0778738 0.0256484 0)
(0.103275 0.0137956 0)
(0.0411268 0.0524435 0)
(0.0676966 0.0382005 0)
(0.0911051 0.0240165 0)
(0.117568 0.0128002 0)
(0.0527757 0.0478101 0)
(0.0792879 0.034959 0)
(0.103387 0.0219064 0)
(0.130804 0.0116643 0)
(0.0629749 0.0423245 0)
(0.089662 0.0312529 0)
(0.114494 0.0194395 0)
(0.142751 0.0104187 0)
(0.0716671 0.036355 0)
(0.0987115 0.027047 0)
(0.124256 0.0167043 0)
(0.153236 0.00909279 0)
(0.0789584 0.0302557 0)
(0.106336 0.0225691 0)
(0.132538 0.0138337 0)
(0.162139 0.00773039 0)
(0.0848962 0.0241429 0)
(0.11252 0.018043 0)
(0.13929 0.0109595 0)
(0.16941 0.00638338 0)
(0.0895091 0.0182428 0)
(0.117302 0.0136584 0)
(0.144532 0.00819406 0)
(0.175068 0.00507166 0)
(0.0929017 0.0126993 0)
(0.120771 0.00953021 0)
(0.148347 0.00560453 0)
(0.179188 0.00378071 0)
(0.0951765 0.00758101 0)
(0.123029 0.00571677 0)
(0.150841 0.00321361 0)
(0.18187 0.00265225 0)
(0.0964261 0.00289114 0)
(0.124171 0.00222792 0)
(0.152113 0.00101665 0)
(0.183237 0.00171007 0)
(0.0967327 -0.00140666 0)
(0.124292 -0.000969796 0)
(0.152292 -0.00100511 0)
(0.183385 0.000709908 0)
(0.0961695 -0.0053603 0)
(0.123484 -0.00391966 0)
(0.151524 -0.00287338 0)
(0.182366 -0.000258646 0)
(0.0948073 -0.00902091 0)
(0.121835 -0.00666674 0)
(0.149895 -0.00462043 0)
(0.180234 -0.00124666 0)
(0.0927119 -0.0124422 0)
(0.119419 -0.00925396 0)
(0.147457 -0.00628588 0)
(0.177044 -0.00207321 0)
(0.0899446 -0.0156847 0)
(0.1163 -0.0117365 0)
(0.144257 -0.00791288 0)
(0.172841 -0.00290173 0)
(0.0865646 -0.0188155 0)
(0.112537 -0.0141777 0)
(0.14033 -0.00955118 0)
(0.167626 -0.00373487 0)
(0.0826314 -0.021911 0)
(0.108186 -0.0166526 0)
(0.135696 -0.0112628 0)
(0.161361 -0.00459525 0)
(0.0782077 -0.0250618 0)
(0.103294 -0.0192543 0)
(0.130353 -0.013125 0)
(0.153965 -0.00551942 0)
(0.0733644 -0.0283794 0)
(0.097908 -0.0220998 0)
(0.124273 -0.0152315 0)
(0.145307 -0.00655252 0)
(0.0681872 -0.0320003 0)
(0.0920704 -0.025332 0)
(0.117391 -0.0176903 0)
(0.135191 -0.00774479 0)
(0.062781 -0.0360873 0)
(0.0858163 -0.0291127 0)
(0.10959 -0.0206102 0)
(0.123358 -0.00914294 0)
(0.0572705 -0.0408167 0)
(0.0791591 -0.0335907 0)
(0.100693 -0.0240628 0)
(0.109501 -0.0107694 0)
(0.0517863 -0.0463264 0)
(0.0720598 -0.0388191 0)
(0.0904504 -0.0279979 0)
(0.0933265 -0.0125749 0)
(0.046422 -0.0525792 0)
(0.0643578 -0.0445729 0)
(0.0785318 -0.0320777 0)
(0.0746567 -0.0143547 0)
(0.0411534 -0.0590978 0)
(0.055712 -0.0500275 0)
(0.0646614 -0.0353437 0)
(0.0537438 -0.0154105 0)
(0.0354518 -0.0644823 0)
(0.0454505 -0.0531455 0)
(0.048206 -0.0356246 0)
(0.031069 -0.0141406 0)
(0.0283429 -0.0662843 0)
(0.031599 -0.0504886 0)
(0.0277838 -0.0302045 0)
(0.0101474 -0.00964563 0)
(0.0153189 -0.0725919 0)
(0.0167226 -0.0374176 0)
(0.0103465 -0.0186825 0)
(0.000495727 -0.00278392 0)
(0.344592 -0.0509628 0)
(0.399954 -0.103799 0)
(0.438068 -0.165232 0)
(0.45891 -0.218531 0)
(0.467527 -0.268589 0)
(0.468404 -0.317 0)
(0.463887 -0.364087 0)
(0.455231 -0.410279 0)
(0.443125 -0.455557 0)
(0.427898 -0.499628 0)
(0.409663 -0.541913 0)
(0.388458 -0.581602 0)
(0.364387 -0.617742 0)
(0.337733 -0.649373 0)
(0.309028 -0.675685 0)
(0.279032 -0.696167 0)
(0.248663 -0.710693 0)
(0.218872 -0.719525 0)
(0.190517 -0.723239 0)
(0.164276 -0.722598 0)
(0.140595 -0.718432 0)
(0.119695 -0.711522 0)
(0.101608 -0.702538 0)
(0.0862209 -0.691994 0)
(0.0733275 -0.68024 0)
(0.0626651 -0.667458 0)
(0.0539385 -0.653671 0)
(0.046887 -0.638772 0)
(0.0415788 -0.622398 0)
(0.0373252 -0.604047 0)
(0.0338458 -0.583241 0)
(0.0308335 -0.559319 0)
(0.0279505 -0.53136 0)
(0.0245976 -0.497775 0)
(0.019813 -0.457311 0)
(0.0131025 -0.409218 0)
(0.403925 -0.0479452 0)
(0.452971 -0.0984966 0)
(0.485495 -0.158313 0)
(0.502694 -0.2107 0)
(0.509157 -0.260014 0)
(0.508681 -0.30761 0)
(0.503178 -0.353785 0)
(0.493633 -0.398827 0)
(0.480462 -0.442586 0)
(0.463724 -0.484576 0)
(0.443286 -0.523952 0)
(0.419009 -0.559585 0)
(0.390936 -0.590204 0)
(0.359442 -0.614619 0)
(0.325306 -0.631963 0)
(0.289652 -0.641873 0)
(0.253787 -0.644549 0)
(0.218993 -0.640675 0)
(0.186339 -0.631238 0)
(0.156578 -0.617326 0)
(0.130115 -0.599964 0)
(0.107049 -0.579999 0)
(0.0872437 -0.558052 0)
(0.0704085 -0.534513 0)
(0.0561625 -0.509564 0)
(0.0440792 -0.483209 0)
(0.0337015 -0.455322 0)
(0.024558 -0.425681 0)
(0.0162035 -0.393961 0)
(0.00820083 -0.359745 0)
(0.000270471 -0.322979 0)
(-0.00790974 -0.28358 0)
(-0.0165873 -0.241458 0)
(-0.0258533 -0.196731 0)
(-0.0359235 -0.150652 0)
(-0.0450344 -0.10669 0)
(0.460436 -0.0449529 0)
(0.503845 -0.0930732 0)
(0.531691 -0.150753 0)
(0.545587 -0.201768 0)
(0.549959 -0.249871 0)
(0.548066 -0.296241 0)
(0.541406 -0.341038 0)
(0.530668 -0.384389 0)
(0.51595 -0.425933 0)
(0.496984 -0.464901 0)
(0.473341 -0.500102 0)
(0.444701 -0.530051 0)
(0.411121 -0.553217 0)
(0.373227 -0.568363 0)
(0.332252 -0.574858 0)
(0.289862 -0.572824 0)
(0.247856 -0.563076 0)
(0.207842 -0.546889 0)
(0.171019 -0.525711 0)
(0.138089 -0.500911 0)
(0.10929 -0.473627 0)
(0.0845008 -0.444699 0)
(0.0633607 -0.414677 0)
(0.0453777 -0.38387 0)
(0.0300161 -0.352418 0)
(0.0167498 -0.320365 0)
(0.0051162 -0.28775 0)
(-0.00523477 -0.254722 0)
(-0.0146053 -0.221458 0)
(-0.0233029 -0.18824 0)
(-0.0315145 -0.155407 0)
(-0.0392445 -0.123546 0)
(-0.0468154 -0.0936636 0)
(-0.0537031 -0.0674754 0)
(-0.0591895 -0.0446548 0)
(-0.0643221 -0.0252606 0)
(0.51366 -0.0419622 0)
(0.552288 -0.087736 0)
(0.576245 -0.142854 0)
(0.587136 -0.191938 0)
(0.589543 -0.238429 0)
(0.586152 -0.283121 0)
(0.578104 -0.32604 0)
(0.565758 -0.367098 0)
(0.548841 -0.405664 0)
(0.526697 -0.440629 0)
(0.498597 -0.470441 0)
(0.464118 -0.493338 0)
(0.423515 -0.507741 0)
(0.377923 -0.512692 0)
(0.329264 -0.50815 0)
(0.279875 -0.494987 0)
(0.232029 -0.47473 0)
(0.187538 -0.449184 0)
(0.147555 -0.420094 0)
(0.112572 -0.388924 0)
(0.0825486 -0.356778 0)
(0.0570875 -0.324405 0)
(0.0356107 -0.29228 0)
(0.0175007 -0.260707 0)
(0.00219301 -0.229937 0)
(-0.0107643 -0.20027 0)
(-0.0218077 -0.172001 0)
(-0.0313454 -0.145348 0)
(-0.0396688 -0.120519 0)
(-0.0470515 -0.0977474 0)
(-0.05367 -0.0772748 0)
(-0.0591088 -0.0596076 0)
(-0.0633814 -0.0441675 0)
(-0.0676067 -0.0309583 0)
(-0.071644 -0.0204806 0)
(-0.074675 -0.0120607 0)
(0.563611 -0.0390106 0)
(0.598254 -0.0824445 0)
(0.61867 -0.134698 0)
(0.627004 -0.181389 0)
(0.627534 -0.225927 0)
(0.622525 -0.268486 0)
(0.612789 -0.30903 0)
(0.598313 -0.347203 0)
(0.578397 -0.382069 0)
(0.551984 -0.412181 0)
(0.518104 -0.435703 0)
(0.476419 -0.450795 0)
(0.427663 -0.456136 0)
(0.373751 -0.451381 0)
(0.317446 -0.437296 0)
(0.261734 -0.415532 0)
(0.2092 -0.388181 0)
(0.161645 -0.357341 0)
(0.11999 -0.324823 0)
(0.0844014 -0.292029 0)
(0.0545225 -0.259956 0)
(0.0297231 -0.229278 0)
(0.00930352 -0.200471 0)
(-0.007399 -0.173934 0)
(-0.0210041 -0.1499 0)
(-0.0321303 -0.128365 0)
(-0.04129 -0.109175 0)
(-0.0489073 -0.0920872 0)
(-0.0552884 -0.0768888 0)
(-0.0606624 -0.0634076 0)
(-0.0652176 -0.0515328 0)
(-0.0691282 -0.041134 0)
(-0.0723693 -0.0319689 0)
(-0.0750032 -0.0239672 0)
(-0.0772617 -0.0172304 0)
(-0.0791744 -0.0114835 0)
(0.61035 -0.0361286 0)
(0.641579 -0.0770735 0)
(0.658776 -0.126336 0)
(0.6649 -0.170374 0)
(0.663586 -0.21257 0)
(0.656797 -0.252595 0)
(0.645013 -0.290317 0)
(0.627805 -0.325089 0)
(0.604021 -0.355681 0)
(0.572241 -0.380374 0)
(0.531415 -0.39721 0)
(0.481556 -0.404532 0)
(0.424171 -0.401568 0)
(0.36214 -0.388773 0)
(0.299061 -0.367724 0)
(0.238389 -0.340666 0)
(0.182786 -0.309988 0)
(0.133844 -0.277847 0)
(0.0921417 -0.245978 0)
(0.0574969 -0.215667 0)
(0.0292803 -0.18781 0)
(0.0066738 -0.162996 0)
(-0.0112131 -0.141555 0)
(-0.0253381 -0.123295 0)
(-0.036592 -0.107729 0)
(-0.0456912 -0.094205 0)
(-0.0531798 -0.0821832 0)
(-0.0594393 -0.0712864 0)
(-0.0647087 -0.0612805 0)
(-0.069124 -0.0520415 0)
(-0.0727848 -0.0435325 0)
(-0.0758108 -0.0357691 0)
(-0.0782753 -0.0287237 0)
(-0.0802804 -0.0223486 0)
(-0.081925 -0.0167066 0)
(-0.0833342 -0.0117546 0)
(0.653883 -0.0333315 0)
(0.682174 -0.0716433 0)
(0.696503 -0.117814 0)
(0.700558 -0.159031 0)
(0.697394 -0.198563 0)
(0.688633 -0.235733 0)
(0.674404 -0.270277 0)
(0.653837 -0.301272 0)
(0.625344 -0.327248 0)
(0.587256 -0.346331 0)
(0.538671 -0.356651 0)
(0.48024 -0.356975 0)
(0.414465 -0.347256 0)
(0.345228 -0.328754 0)
(0.276801 -0.303678 0)
(0.212866 -0.274599 0)
(0.155951 -0.24397 0)
(0.107322 -0.213859 0)
(0.067185 -0.185862 0)
(0.0350129 -0.161092 0)
(0.00984117 -0.140169 0)
(-0.00956319 -0.123182 0)
(-0.0245981 -0.109458 0)
(-0.0364953 -0.0980752 0)
(-0.046177 -0.088165 0)
(-0.0542439 -0.0791312 0)
(-0.0610521 -0.0706157 0)
(-0.0668113 -0.0624496 0)
(-0.0716664 -0.0545907 0)
(-0.0756954 -0.0470636 0)
(-0.0789547 -0.0398912 0)
(-0.0815272 -0.0331445 0)
(-0.083522 -0.0268984 0)
(-0.0850517 -0.0211752 0)
(-0.0862144 -0.0160197 0)
(-0.0871458 -0.0114541 0)
(0.694208 -0.0306287 0)
(0.719973 -0.0662119 0)
(0.731715 -0.109217 0)
(0.73379 -0.147481 0)
(0.72873 -0.18412 0)
(0.717784 -0.218213 0)
(0.700709 -0.249344 0)
(0.676193 -0.276362 0)
(0.642281 -0.297646 0)
(0.597227 -0.31132 0)
(0.540527 -0.315791 0)
(0.473717 -0.310413 0)
(0.400392 -0.295893 0)
(0.325326 -0.274154 0)
(0.253229 -0.247785 0)
(0.187781 -0.219444 0)
(0.131238 -0.191481 0)
(0.0844817 -0.165782 0)
(0.0472933 -0.143678 0)
(0.0186399 -0.125825 0)
(-0.00306671 -0.112078 0)
(-0.019688 -0.101477 0)
(-0.0328594 -0.0928363 0)
(-0.0436804 -0.0852312 0)
(-0.0528044 -0.0780936 0)
(-0.0606119 -0.0711241 0)
(-0.067298 -0.064193 0)
(-0.0729623 -0.0572625 0)
(-0.0776792 -0.0503696 0)
(-0.0815173 -0.0436025 0)
(-0.0845417 -0.0370362 0)
(-0.0868102 -0.0307657 0)
(-0.088432 -0.0248998 0)
(-0.0895292 -0.0195207 0)
(-0.0902216 -0.0146945 0)
(-0.0906497 -0.0104648 0)
(0.731353 -0.0280278 0)
(0.754942 -0.0608371 0)
(0.764328 -0.100636 0)
(0.764475 -0.135858 0)
(0.757447 -0.169471 0)
(0.7441 -0.200363 0)
(0.72381 -0.227978 0)
(0.694854 -0.251009 0)
(0.655023 -0.267784 0)
(0.602691 -0.276573 0)
(0.537989 -0.276206 0)
(0.46349 -0.266679 0)
(0.383846 -0.249351 0)
(0.304531 -0.226594 0)
(0.230446 -0.20114 0)
(0.165093 -0.175546 0)
(0.110358 -0.151936 0)
(0.0666506 -0.131862 0)
(0.0331273 -0.116105 0)
(0.00798219 -0.104465 0)
(-0.0110661 -0.0958975 0)
(-0.0261034 -0.0890767 0)
(-0.0384969 -0.0830615 0)
(-0.0490342 -0.0773007 0)
(-0.0581298 -0.0714984 0)
(-0.0660083 -0.0655261 0)
(-0.0727822 -0.0593678 0)
(-0.0785154 -0.0530492 0)
(-0.083241 -0.0466364 0)
(-0.0870026 -0.0402389 0)
(-0.0898542 -0.0339767 0)
(-0.0918535 -0.0279774 0)
(-0.0931076 -0.022368 0)
(-0.0937531 -0.0172623 0)
(-0.0939393 -0.0127482 0)
(-0.0938261 -0.00888271 0)
(0.765379 -0.0255356 0)
(0.787086 -0.0555697 0)
(0.794303 -0.0921583 0)
(0.792553 -0.124308 0)
(0.783476 -0.154848 0)
(0.767535 -0.182511 0)
(0.743726 -0.206637 0)
(0.709983 -0.225837 0)
(0.663983 -0.238497 0)
(0.604416 -0.243154 0)
(0.532226 -0.239132 0)
(0.451057 -0.227016 0)
(0.3665 -0.208647 0)
(0.2845 -0.186617 0)
(0.209939 -0.163613 0)
(0.14599 -0.141953 0)
(0.0940617 -0.123392 0)
(0.053908 -0.108926 0)
(0.0238448 -0.098527 0)
(0.00130443 -0.0911981 0)
(-0.0162589 -0.0856104 0)
(-0.0306447 -0.0807648 0)
(-0.042873 -0.0760736 0)
(-0.0534936 -0.0712365 0)
(-0.0627931 -0.0661128 0)
(-0.0709041 -0.0606559 0)
(-0.077888 -0.0548914 0)
(-0.0837758 -0.0488808 0)
(-0.0885725 -0.0427189 0)
(-0.0922955 -0.0365314 0)
(-0.0949838 -0.0304635 0)
(-0.0967012 -0.0246664 0)
(-0.0975618 -0.0192859 0)
(-0.0977193 -0.0144543 0)
(-0.0973522 -0.0102746 0)