/*--------------------------------*- C++ -*----------------------------------*\
| =========                 |                                                 |
| \\      /  F ield         | OpenFOAM: The Open Source CFD Toolbox           |
|  \\    /   O peration     | Version:  v2012                                 |
|   \\  /    A nd           | Website:  www.openfoam.com                      |
|    \\/     M anipulation  |                                                 |
\*---------------------------------------------------------------------------*/
FoamFile
{
    version     2.0;
    format      ascii;
    class       volScalarField;
    location    "582";
    object      age;
}
// * * * * * * * * * * * * * * * * * * * * * * * * * * * * * * * * * * * * * //

dimensions      [0 0 1 0 0 0 0];


internalField   nonuniform List<scalar> 
6598
(
0.0125023
0.0124995
0.0124997
0.0124998
0.0124998
0.0124998
0.0124998
0.0124997
0.0124995
0.0125023
0.0375123
0.0374963
0.0374967
0.0374973
0.0374976
0.0374976
0.0374973
0.0374967
0.0374963
0.0375123
0.0625358
0.0624918
0.06249
0.0624909
0.0624916
0.0624916
0.0624909
0.06249
0.0624917
0.0625358
0.0875735
0.087487
0.0874795
0.0874797
0.0874805
0.0874804
0.0874797
0.0874795
0.087487
0.0875735
0.112625
0.112483
0.112465
0.112463
0.112464
0.112464
0.112463
0.112465
0.112483
0.112625
0.13769
0.137479
0.137448
0.137442
0.137441
0.137441
0.137442
0.137448
0.137479
0.13769
0.162768
0.162477
0.162428
0.162416
0.162413
0.162413
0.162416
0.162427
0.162476
0.162768
0.187858
0.187475
0.187404
0.187385
0.18738
0.18738
0.187385
0.187404
0.187474
0.187858
0.21296
0.212474
0.212379
0.21235
0.212342
0.212341
0.21235
0.212378
0.212473
0.212959
0.238073
0.237474
0.23735
0.237311
0.237298
0.237298
0.23731
0.237349
0.237472
0.238071
0.263197
0.262475
0.26232
0.262268
0.262251
0.26225
0.262267
0.262317
0.262472
0.263193
0.288331
0.287477
0.287287
0.287222
0.287198
0.287198
0.287219
0.287283
0.287472
0.288325
0.313475
0.31248
0.312252
0.312172
0.312142
0.312141
0.312168
0.312246
0.312473
0.313467
0.33863
0.337484
0.337215
0.337118
0.337082
0.33708
0.337113
0.337207
0.337473
0.338616
0.363795
0.362489
0.362177
0.362062
0.362018
0.362015
0.362054
0.362165
0.362473
0.363779
0.388971
0.387496
0.387138
0.387003
0.386951
0.386946
0.386991
0.387119
0.387472
0.388927
0.414158
0.412506
0.412098
0.411942
0.41188
0.411873
0.411924
0.412069
0.412469
0.414174
0.439358
0.43752
0.437059
0.43688
0.436806
0.436796
0.436851
0.437015
0.437463
0.439034
0.464572
0.462538
0.462021
0.461816
0.461729
0.461715
0.461773
0.461955
0.462453
0.465559
0.489803
0.487564
0.486986
0.486754
0.486652
0.486629
0.486688
0.486884
0.487429
0.485052
0.514693
0.512243
0.511602
0.511339
0.511218
0.511185
0.511239
0.511443
0.512032
0.533688
0.539245
0.536579
0.53587
0.535575
0.535433
0.535385
0.535433
0.535644
0.536278
0.566235
0.563826
0.560933
0.560153
0.559823
0.559657
0.559593
0.559633
0.559857
0.560523
0.598084
0.588443
0.585314
0.584456
0.584089
0.583897
0.583815
0.583848
0.584093
0.584781
0.629286
0.613103
0.609729
0.608788
0.60838
0.608161
0.608059
0.608086
0.608369
0.609073
0.65987
0.637816
0.634187
0.633157
0.632706
0.632457
0.632334
0.63236
0.6327
0.633413
0.689676
0.662592
0.658698
0.657573
0.657076
0.656795
0.656652
0.656681
0.657101
0.657815
0.718609
0.68789
0.683714
0.682484
0.681938
0.681623
0.68146
0.681499
0.682026
0.682735
0.747539
0.713728
0.709254
0.707907
0.707308
0.706957
0.706775
0.706832
0.707499
0.708191
0.775373
0.739682
0.734898
0.733423
0.732768
0.732379
0.732179
0.732264
0.733102
0.733765
0.802074
0.765775
0.760666
0.759053
0.758337
0.757907
0.757692
0.757813
0.758855
0.759483
0.827716
0.792031
0.786584
0.784817
0.784035
0.783563
0.783332
0.783498
0.784776
0.785369
0.852386
0.818481
0.812681
0.810743
0.809889
0.809371
0.809124
0.809338
0.810878
0.811442
0.876131
0.84516
0.838991
0.836861
0.835927
0.83536
0.835094
0.835356
0.837178
0.837717
0.89903
0.87211
0.865556
0.863208
0.862185
0.861562
0.861272
0.861579
0.86369
0.864212
0.92118
0.899382
0.892424
0.88983
0.888705
0.888019
0.887699
0.888038
0.890431
0.890947
0.942715
0.927038
0.919654
0.91678
0.915538
0.914779
0.914419
0.914771
0.917424
0.917949
0.963853
0.955149
0.947319
0.944125
0.942745
0.941904
0.941491
0.941828
0.944697
0.945263
0.98489
0.983806
0.975504
0.971943
0.970401
0.969465
0.968984
0.969271
0.972291
0.972947
1.00617
1.01312
1.00431
1.00033
0.998595
0.997551
0.996984
0.99718
1.00026
1.00107
1.02808
1.04321
1.03387
1.02941
1.02744
1.02627
1.0256
1.02566
1.02869
1.02973
1.05068
1.07424
1.06434
1.05931
1.05706
1.05574
1.05495
1.05483
1.05769
1.05907
1.07326
1.10641
1.09589
1.09022
1.08762
1.08612
1.08519
1.08487
1.08741
1.0893
1.09613
1.13997
1.12876
1.12235
1.11932
1.1176
1.11652
1.11595
1.11801
1.12064
1.11943
1.17522
1.16323
1.15596
1.1524
1.15041
1.14913
1.14833
1.14974
1.15345
1.14267
1.21256
1.19967
1.1914
1.18717
1.18481
1.18331
1.18228
1.18287
1.18795
1.17007
1.25252
1.23854
1.22907
1.22399
1.22115
1.21938
1.21813
1.2178
1.22354
1.20888
1.29584
1.28046
1.26954
1.26338
1.25988
1.25771
1.25626
1.25509
1.26015
1.25279
1.34353
1.32631
1.31354
1.30597
1.30156
1.29883
1.29711
1.29534
1.2986
1.29761
1.39717
1.37734
1.36212
1.35266
1.34696
1.34341
1.34125
1.33914
1.34023
1.34224
1.45928
1.43548
1.41673
1.40465
1.39712
1.39235
1.38943
1.38707
1.38641
1.38835
1.5345
1.50413
1.47993
1.46391
1.45362
1.44695
1.44277
1.43991
1.43816
1.43866
1.63221
1.58836
1.55465
1.53269
1.51848
1.5091
1.50297
1.49901
1.49642
1.4955
1.77934
1.70711
1.65215
1.61739
1.5955
1.58138
1.5722
1.56633
1.56265
1.56066
2.04461
1.86705
1.77703
1.72361
1.69134
1.66996
1.65531
1.64556
1.63944
1.63597
5.88288
2.92466
2.06261
1.87614
1.80874
1.77735
1.75834
1.74466
1.73473
1.72806
13.4901
8.61374
4.27049
2.40678
2.00114
1.9089
1.87381
1.85834
1.84933
1.84315
12.3967
12.5384
9.41052
5.42588
3.21161
2.30893
2.07974
2.01352
1.98483
1.97093
11.9303
11.7747
12.2898
9.46871
6.52004
4.41319
3.25869
2.6716
2.41343
2.30403
11.4897
10.588
10.1933
9.46196
8.07187
6.81133
5.87321
5.1675
4.64129
4.2604
131.833
155.444
156.018
158.907
161.728
165.379
169.405
173.561
178.017
182.517
186.28
189.103
191.046
192.237
192.749
192.893
193.03
193.168
193.308
193.454
193.612
193.793
194.02
194.409
196.603
127.974
148.694
145.304
148.029
153.069
160.983
171.773
184.805
199.323
214.232
228.294
240.497
250.11
256.802
260.548
261.076
258.113
251.741
242.378
230.826
218.479
207.313
199.356
195.592
196.134
121.18
146.088
144.013
144.143
146.928
155.283
170.269
191.224
216.98
245.592
274.296
300.256
321.418
336.661
345.512
347.792
343.636
333.07
316.179
293.449
266.43
238.551
215.06
200.313
196.191
114.126
145.132
143.926
143.784
144.061
149.385
165.022
190.937
226.051
268.035
312.319
353.558
388.079
413.777
429.473
434.511
428.871
413.105
388.121
355.005
315.35
272.664
233.907
207.068
196.759
106.995
144.954
144.184
143.897
143.615
145.292
157.47
184.105
223.865
274.756
331.124
385.372
432.222
468.487
491.853
501.546
495.815
475.715
443.44
401.476
352.16
298.927
249.103
212.812
197.356
98.8624
145.127
145.112
144.697
143.552
143.464
150.025
172.602
211.405
264.586
326.345
388.299
443.522
487.778
517.858
533.626
527.898
506.504
470.359
423.683
369.513
311.32
256.501
215.837
197.731
90.1621
144.527
146.917
146.852
144.384
143.244
145.086
159.835
192.355
241.193
301.459
364.382
421.992
469.218
502.475
518.752
518.175
498.311
463.737
418.112
364.792
307.894
254.919
215.606
197.939
81.0705
142.648
149.009
150.201
146.699
143.435
143.044
149.497
171.551
210.249
262.298
319.785
373.978
419.007
451.687
469.451
470.313
454.194
424.75
384.354
336.928
287.54
243.552
213.018
200.576
71.7834
139.41
150.898
154.68
151.196
145.273
142.86
143.928
154.15
178.876
217.215
263.709
310.038
349.117
377.043
392.362
394.406
383.254
360.544
329.363
294.02
259.735
231.669
211.571
191.129
62.6222
134.687
152.29
159.264
157.29
149.719
143.89
142.575
144.711
154.894
176.549
207.565
242.323
274.351
298.247
311.807
314.886
308.248
293.446
272.855
249.221
224.661
199.63
173.399
148.061
53.7907
128.575
153.364
163.573
164.77
157.256
148.143
143.218
142.479
143.855
150.039
163.509
182.324
203.197
221.342
233.012
236.928
233.097
223.108
208.239
190.204
170.857
152.575
139.333
132.674
45.4652
120.599
153.459
167.165
172.75
167.435
157.284
148.001
143.178
141.966
142.003
143.551
147.258
152.833
159.198
164.113
165.859
163.878
158.602
151.77
144.972
139.068
135.598
135.163
138.925
37.7192
111.367
152.173
169.867
180.558
179.226
170.661
160.032
150.885
145.026
141.763
140.231
139.739
139.679
139.603
139.525
139.442
139.341
139.17
139.08
138.991
138.937
142.067
150.521
165.074
30.588
101.167
149.163
171.587
187.501
191.511
186.564
177.486
167.955
159.74
153.366
148.79
145.788
144.03
143.066
142.616
142.559
142.872
143.766
145.811
150.244
157.961
170.329
186.15
205.038
24.0999
90.2327
144.193
172.046
193.107
203.43
203.53
197.679
189.674
181.761
174.826
169.141
164.812
161.846
160.217
159.914
160.95
163.563
168.129
175.142
184.978
197.483
212.81
230.29
249.602
18.2236
78.3626
136.977
170.888
196.776
214.171
220.748
219.754
215.306
209.892
204.783
200.48
197.232
195.225
194.616
195.541
198.248
202.942
209.79
218.897
230.217
243.58
258.81
275.662
293.947
13.3024
65.6405
127.173
167.587
197.918
222.296
235.799
240.678
240.813
239.036
236.913
235.194
234.224
234.22
235.391
237.977
242.157
248.05
255.714
265.139
276.259
288.985
303.216
318.866
335.833
9.47321
52.5484
114.513
161.392
196.07
226.711
247.455
258.825
264.222
266.576
267.796
268.897
270.38
272.53
275.554
279.634
284.907
291.458
299.332
308.54
319.078
330.938
344.103
358.554
374.242
6.62152
39.7543
99.008
151.438
190.819
226.264
254.428
272.568
283.693
290.629
295.496
299.543
303.455
307.607
312.249
317.555
323.657
330.647
338.593
347.543
357.537
368.613
380.804
394.13
408.584
4.58182
28.0171
81.1045
136.898
181.382
220.46
255.077
280.393
297.649
309.616
318.442
325.613
332.002
338.12
344.288
350.718
357.565
364.949
372.966
381.695
391.208
401.565
412.824
425.037
438.234
3.19097
18.0472
62.0424
117.563
166.686
209.022
248.055
280.516
304.317
321.701
334.95
345.548
354.624
362.842
370.617
378.224
385.858
393.67
401.786
410.316
419.359
429.002
439.322
450.389
462.263
2.29688
10.4279
42.6815
93.8472
145.742
191.409
233.136
270.809
301.546
324.977
342.878
357.381
369.522
380.103
389.681
398.616
407.149
415.467
423.728
432.076
440.645
449.554
458.907
468.793
479.289
1.75202
5.87511
25.7875
67.7109
118.356
166.62
210.443
250.856
286.765
316.531
340.032
358.79
374.277
387.541
399.249
409.75
419.35
428.289
436.77
444.983
453.105
461.297
469.697
478.41
487.526
1.44755
3.45765
13.4448
42.8585
86.6263
134.312
179.593
221.382
259.736
293.86
322.821
346.655
366.198
382.502
396.479
408.711
419.57
429.326
438.215
446.461
454.283
461.882
469.425
477.039
484.833
1.29918
2.23954
6.15011
22.3958
54.6738
96.5326
140.593
182.748
221.854
257.642
289.682
317.58
341.343
361.379
378.298
392.695
405.056
415.779
425.215
433.668
441.405
448.65
455.575
462.314
468.986
1.2409
1.63456
3.09711
9.54785
28.3861
59.0072
96.6089
136.104
174.356
210.054
242.745
272.21
298.338
321.178
340.916
357.813
372.183
384.399
394.863
403.943
411.952
419.153
425.749
431.899
437.734
1.23489
1.37105
1.93429
3.64688
11.205
28.6907
54.9554
86.7053
120.451
153.708
185.119
214.075
240.356
263.934
284.848
303.134
318.917
332.443
344.021
353.961
362.554
370.054
376.677
382.604
387.977
1.25327
1.29709
1.45977
1.93318
3.63004
10.174
23.8846
44.058
68.6506
95.3624
122.325
148.304
172.609
194.932
215.131
233.112
248.905
262.648
274.532
284.777
293.602
301.216
307.808
313.549
318.574
1.29199
1.30145
1.32861
1.44344
1.58046
2.55617
6.53492
15.2737
28.8368
45.8718
64.9008
84.6463
104.151
122.791
140.165
156.01
170.223
182.807
193.841
203.442
211.749
218.908
225.061
230.346
234.873
1.33949
1.33796
1.33902
1.35675
1.40088
1.52532
1.63775
2.89935
6.56624
13.1896
22.9265
34.5042
47.0296
59.8154
72.3245
84.1781
95.1439
105.101
114.011
121.888
128.784
134.771
139.933
144.359
148.121
1.38913
1.38823
1.38425
1.37947
1.38659
1.41488
1.45739
1.54692
1.6347
1.85094
3.35722
6.26541
10.5323
15.9709
22.4075
29.1511
35.7883
42.0946
47.9424
53.2603
58.0226
62.2329
65.9117
69.0945
71.8144
1.44048
1.44207
1.44188
1.43815
1.43428
1.43428
1.44382
1.46797
1.50221
1.55136
1.60937
1.66029
1.71302
1.76367
2.27543
3.22985
4.5289
6.06912
7.75328
9.49517
11.226
12.8928
14.4563
15.8909
17.1825
1.49646
1.4987
1.50136
1.50283
1.50257
1.49994
1.49921
1.50083
1.51269
1.52613
1.55089
1.57942
1.61034
1.6397
1.68405
1.71949
1.75188
1.78402
1.81605
1.84793
1.87961
1.91104
1.94218
1.97301
2.00351
1.56038
1.56177
1.56465
1.56842
1.57233
1.57516
1.57724
1.57882
1.58032
1.58475
1.59243
1.60434
1.62123
1.63762
1.657
1.67998
1.70404
1.72852
1.75321
1.778
1.80282
1.82765
1.85246
1.87726
1.90196
1.63455
1.6349
1.63688
1.64042
1.64527
1.65096
1.65693
1.663
1.66857
1.67437
1.68076
1.68801
1.69662
1.70739
1.71956
1.73333
1.74866
1.76531
1.78302
1.80254
1.82308
1.84303
1.86293
1.88289
1.90339
1.72424
1.72275
1.7232
1.72545
1.72935
1.73478
1.74148
1.74923
1.75772
1.76675
1.77623
1.78614
1.79649
1.80754
1.81938
1.832
1.84544
1.85971
1.87477
1.89049
1.90686
1.9239
1.94154
1.9597
1.9783
1.83898
1.8366
1.83585
1.83672
1.83916
1.84313
1.84856
1.85535
1.86339
1.87255
1.88268
1.89365
1.90538
1.91777
1.9308
1.94443
1.95864
1.9734
1.9887
2.00448
2.02073
2.03741
2.05449
2.07196
2.08977
1.96521
1.96389
1.96503
1.9678
1.97185
1.97702
1.98325
1.99049
1.99874
2.00794
2.01807
2.02907
2.04088
2.05345
2.0667
2.08058
2.09503
2.11002
2.12549
2.1414
2.15772
2.1744
2.1914
2.20871
2.22629
2.25076
2.22136
2.20428
2.19481
2.19042
2.18962
2.19151
2.19554
2.20131
2.20857
2.21711
2.22679
2.23749
2.24909
2.26152
2.27469
2.28853
2.30297
2.31795
2.33342
2.34933
2.36563
2.38228
2.39923
2.41654
4.00264
3.82973
3.70841
3.61962
3.55253
3.50093
3.46099
3.43019
3.40673
3.38928
3.37683
3.3686
3.36396
3.3624
3.36349
3.36687
3.37225
3.37938
3.38805
3.39806
3.40927
3.42153
3.4347
3.44868
3.46347
198.946
165.68
127.388
157.296
135.522
127.559
132.289
129.001
133.099
132.306
138.845
152.199
148.923
165.39
183.867
183.076
202.526
223.227
224.968
244.847
265.762
269.077
288.293
308.366
312.272
330.375
349.276
352.885
369.787
387.499
390.052
405.775
422.317
423.165
437.696
453.024
451.532
464.796
478.804
474.188
486.074
498.63
489.763
500.174
511.16
496.533
505.418
514.734
492.381
499.725
507.365
475.26
481.208
487.282
443.021
447.863
452.662
392.64
396.73
400.631
322.773
326.304
329.533
238.558
241.555
244.194
151.147
153.563
155.64
74.0057
75.7509
77.2412
18.2554
19.1455
19.9263
2.02998
2.05613
2.08202
1.92584
1.94847
1.97066
1.92323
1.94208
1.96113
1.99607
2.01294
2.03003
2.10675
2.12285
2.13913
2.243
2.25879
2.27473
2.43254
2.448
2.46357
3.47691
3.4907
3.50475
162.498
132.391
126.027
125.324
124.947
124.712
124.554
124.427
124.309
124.201
124.099
124.004
123.913
123.827
123.744
123.663
123.585
123.509
123.435
123.362
123.291
123.221
123.152
123.083
123.016
122.949
122.882
122.816
122.75
122.685
122.62
122.555
122.49
122.425
122.36
122.294
122.229
122.163
122.096
122.03
121.962
121.894
121.824
121.753
121.681
121.607
121.531
121.452
121.37
121.282
121.184
121.076
120.978
120.908
120.852
120.785
120.738
120.713
120.71
120.687
120.748
120.872
121.034
121.146
121.369
121.662
122.077
122.515
122.906
123.213
123.425
123.535
123.637
123.739
123.844
123.955
124.08
124.225
124.542
125.957
138.138
127.907
125.701
125.318
125.154
125.123
125.191
125.323
125.51
125.738
125.994
126.267
126.549
126.83
127.106
127.373
127.628
127.868
128.093
128.302
128.493
128.668
128.825
128.965
129.087
129.192
129.278
129.346
129.396
129.427
129.438
129.429
129.399
129.347
129.271
129.156
128.998
128.796
128.547
128.248
127.899
127.502
127.055
126.561
126.021
125.438
124.819
124.172
123.508
122.842
122.196
121.596
121.062
120.653
120.426
120.295
120.128
119.916
119.803
119.697
119.63
119.684
119.922
120.371
121.339
122.735
124.548
126.72
128.972
130.97
132.428
133.155
133.012
132.047
130.425
128.458
126.597
125.306
124.78
125.724
131.216
126.44
125.71
125.59
125.84
126.456
127.488
128.968
130.818
132.939
135.244
137.651
140.092
142.517
144.886
147.174
149.363
151.442
153.404
155.246
156.968
158.569
160.049
161.41
162.652
163.776
164.781
165.667
166.432
167.074
167.591
167.978
168.232
168.349
168.326
168.173
167.879
167.436
166.83
166.054
165.1
163.959
162.62
161.072
159.302
157.301
155.059
152.568
149.821
146.82
143.571
140.095
136.435
132.689
129.102
125.873
123.142
121.103
119.932
119.721
119.44
119.33
119.395
119.851
121.219
123.574
127.142
132.055
137.451
142.587
146.476
148.805
148.922
146.943
143.06
137.869
132.438
128.09
125.596
125.661
128.949
126.158
125.899
126.469
128.068
130.848
134.793
139.647
145.079
150.839
156.691
162.463
168.039
173.348
178.35
183.03
187.385
191.424
195.159
198.606
201.78
204.697
207.37
209.813
212.034
214.045
215.85
217.455
218.862
220.073
221.087
221.902
222.513
222.914
223.099
223.059
222.79
222.275
221.499
220.447
219.103
217.449
215.465
213.129
210.42
207.314
203.787
199.816
195.376
190.448
185.016
179.07
172.614
165.671
158.299
150.609
142.8
135.204
128.403
123.453
120.395
119.344
119.132
119.118
119.919
122.168
126.285
132.883
140.803
149.095
155.674
159.552
159.57
157.681
153.121
145.779
137.603
130.703
126.517
125.813
128.071
126.176
126.598
128.967
133.505
140.182
148.507
157.819
167.548
177.277
186.715
195.692
204.123
211.979
219.264
226.001
232.224
237.969
243.271
248.165
252.681
256.846
260.683
264.211
267.445
270.398
273.079
275.495
277.647
279.538
281.165
282.525
283.611
284.415
284.926
285.132
285.018
284.569
283.763
282.579
280.995
278.986
276.525
273.583
270.129
266.13
261.554
256.367
250.534
244.023
236.804
228.852
220.149
210.691
200.496
189.606
178.107
166.173
154.105
142.421
132.015
124.422
120.165
119.036
118.844
119.579
121.938
127.414
135.205
144.515
152.679
157.817
159.82
159.327
154.983
147.509
138.999
131.582
126.892
126.015
127.621
126.362
128.587
134.27
143.353
155.073
168.333
182.158
195.868
209.06
221.521
233.171
244.002
254.044
263.346
271.965
279.955
287.366
294.247
300.637
306.573
312.086
317.201
321.939
326.317
330.348
334.043
337.407
340.443
343.15
345.526
347.565
349.258
350.594
351.558
352.135
352.306
352.049
351.342
350.157
348.467
346.24
343.444
340.044
336.002
331.281
325.842
319.644
312.648
304.815
296.11
286.501
275.96
264.474
252.048
238.697
224.445
209.377
193.628
177.464
161.351
146.035
132.809
123.859
119.364
118.722
118.671
120.326
124.525
131.934
139.763
146.722
150.662
151.079
148.12
142.858
136.432
130.563
126.938
126.211
127.249
127.24
132.894
143.75
158.477
175.474
193.301
210.964
227.905
243.882
258.827
272.754
285.718
297.786
309.028
319.509
329.289
338.422
346.956
354.932
362.389
369.356
375.861
381.926
387.569
392.802
397.635
402.075
406.122
409.776
413.031
415.879
418.31
420.307
421.854
422.93
423.512
423.574
423.089
422.025
420.35
418.028
415.02
411.288
406.789
401.482
395.325
388.274
380.288
371.327
361.356
350.341
338.259
325.094
310.856
295.552
279.188
261.818
243.504
224.393
204.757
184.946
165.549
147.561
132.592
123.156
118.64
118.118
117.982
120.106
124.312
130.08
135.354
137.608
137.399
135.152
131.858
128.69
126.843
126.437
127.284
130.8
142.655
159.765
180.074
201.587
222.992
243.568
263.011
281.262
298.356
314.363
329.358
343.414
356.601
368.98
380.609
391.537
401.813
411.478
420.567
429.112
437.141
444.674
451.728
458.318
464.45
470.13
475.356
480.125
484.429
488.256
491.591
494.414
496.703
498.432
499.573
500.094
499.96
499.138
497.591
495.276
492.154
488.18
483.311
477.503
470.714
462.902
454.026
444.049
432.94
420.671
407.224
392.589
376.777
359.801
341.685
322.487
302.262
281.123
259.252
236.85
214.207
191.766
170.202
150.572
134.459
124.132
118.427
116.572
116.475
117.253
120.504
124.172
127.333
128.988
128.916
128.093
127.526
126.777
130.94
142.542
161.256
183.837
208.266
232.808
256.575
279.185
300.548
320.699
339.707
357.643
374.575
390.567
405.676
419.958
433.467
446.248
458.348
469.804
480.652
490.922
500.639
509.822
518.486
526.642
534.295
541.444
548.085
554.21
559.804
564.849
569.324
573.202
576.452
579.042
580.933
582.085
582.457
582.006
580.689
578.462
575.28
571.097
565.872
559.562
552.13
543.541
533.764
522.773
510.547
497.07
482.336
466.348
449.118
430.672
411.05
390.316
368.546
345.855
322.402
298.365
273.959
249.453
225.185
201.601
179.292
159.021
141.841
129.126
120.819
115.497
112.626
111.532
111.456
111.376
111.111
109.904
107.826
105.216
145.069
164.761
188.681
214.795
241.45
267.562
292.677
316.648
339.472
361.194
381.864
401.531
420.244
438.053
455.008
471.158
486.55
501.227
515.231
528.598
541.358
553.539
565.161
576.239
586.784
596.8
606.286
615.234
623.632
631.463
638.702
645.32
651.285
656.556
661.09
664.84
667.755
669.781
670.864
670.947
669.975
667.899
664.669
660.239
654.569
647.626
639.383
629.822
618.933
606.714
593.17
578.314
562.165
544.749
526.099
506.255
485.269
463.208
440.158
416.234
391.585
366.388
340.852
315.224
289.782
264.842
240.755
217.909
196.743
177.724
161.345
147.863
137.286
129.505
124.475
121.451
120.085
120.358
122.628
128.319
171.442
196.029
222.863
250.503
277.944
304.677
330.515
355.403
379.34
402.338
424.418
445.606
465.937
485.45
504.187
522.192
539.508
556.173
572.224
587.693
602.605
616.981
630.837
644.179
657.01
669.325
681.113
692.355
703.025
713.091
722.512
731.243
739.23
746.413
752.728
758.105
762.471
765.749
767.862
768.735
768.294
766.471
763.207
758.455
752.176
744.347
734.962
724.027
711.567
697.62
682.237
665.481
647.421
628.13
607.685
586.161
563.635
540.189
515.909
490.903
465.298
439.25
412.947
386.607
360.48
334.838
309.972
286.189
263.808
243.155
224.549
208.288
194.612
183.705
175.709
170.762
169.018
170.752
176.533
186.582
206.872
233.515
261.178
288.939
316.34
343.181
369.369
394.854
419.606
443.608
466.859
489.375
511.18
532.308
552.796
572.684
592.01
610.809
629.112
646.946
664.33
681.279
697.797
713.884
729.531
744.72
759.424
773.609
787.23
800.234
812.556
824.126
834.861
844.672
853.461
861.124
867.554
872.639
876.268
878.334
878.734
877.376
874.178
869.081
862.048
853.065
842.146
829.332
814.693
798.322
780.334
760.862
740.051
718.052
695.013
671.076
646.374
621.024
595.136
568.816
542.174
515.333
488.443
461.684
435.266
409.433
384.443
360.568
338.086
317.273
298.4
281.734
267.54
256.077
247.598
242.346
240.555
242.446
248.222
257.68
247.293
274.064
301.309
328.532
355.535
382.215
408.496
434.314
459.619
484.383
508.599
532.277
555.44
578.118
600.348
622.166
643.607
664.703
685.482
705.964
726.162
746.082
765.721
785.066
804.095
822.774
841.059
858.896
876.215
892.937
908.968
924.204
938.525
951.802
963.894
974.65
983.913
991.523
997.319
1001.15
1002.86
1002.33
999.452
994.131
986.326
976.029
963.274
948.139
930.746
911.255
889.86
866.783
842.261
816.542
789.873
762.49
734.607
706.417
678.082
649.736
621.492
593.452
565.717
538.407
511.667
485.677
460.647
436.815
414.432
393.751
375.019
358.479
344.368
332.925
324.382
318.918
316.638
317.557
321.588
328.372
289.326
315.262
341.606
368.086
394.559
420.915
447.086
473.012
498.646
523.965
548.964
573.656
598.064
622.221
646.162
669.923
693.537
717.036
740.441
763.771
787.031
810.22
833.326
856.324
879.179
901.841
924.25
946.327
967.98
989.101
1009.56
1029.23
1047.93
1065.49
1081.72
1096.41
1109.34
1120.27
1129
1135.29
1138.93
1139.76
1137.63
1132.37
1123.96
1112.38
1097.69
1080
1059.49
1036.4
1011.01
983.631
954.619
924.328
893.111
861.308
829.234
797.171
765.359
733.997
703.237
673.197
643.965
615.614
588.22
561.873
536.694
512.834
490.474
469.817
451.071
434.446
420.151
408.4
399.384
393.195
389.804
389.083
390.801
394.608
330.819
355.6
380.926
406.602
432.464
458.372
484.264
510.107
535.875
561.557
587.157
612.694
638.196
663.695
689.228
714.832
740.54
766.381
792.374
818.534
844.863
871.353
897.983
924.723
951.525
978.328
1005.06
1031.62
1057.91
1083.78
1109.09
1133.66
1157.29
1179.74
1200.77
1220.1
1237.43
1252.45
1264.86
1274.34
1280.61
1283.41
1282.53
1277.8
1269.06
1256.37
1239.83
1219.64
1196.02
1169.25
1139.69
1107.77
1073.96
1038.71
1002.51
965.775
928.93
892.34
856.321
821.14
787.007
754.082
722.479
692.272
663.513
636.24
610.49
586.316
563.794
543.023
524.122
507.226
492.491
480.107
470.221
462.85
457.892
455.151
454.348
455.148
370.499
394.075
418.35
443.146
468.293
493.635
519.1
544.685
570.392
596.227
622.206
648.352
674.695
701.272
728.118
755.27
782.76
810.615
838.854
867.486
896.512
925.919
955.685
985.774
1016.14
1046.71
1077.41
1108.15
1138.8
1169.21
1199.22
1228.61
1257.14
1284.54
1310.49
1334.63
1356.6
1375.99
1392.4
1405.45
1414.77
1420.02
1420.95
1417.41
1409.01
1395.81
1377.83
1355.43
1329.11
1299.15
1265.93
1229.95
1191.78
1151.98
1111.11
1069.72
1028.3
987.288
947.071
907.963
870.222
834.044
799.573
766.905
736.099
707.186
680.177
655.071
631.864
610.559
591.169
573.728
558.323
545.087
534.096
525.305
518.564
513.633
510.195
507.886
407.506
429.855
453.013
476.814
501.101
525.727
550.606
575.739
601.155
626.876
652.924
679.326
706.115
733.325
760.99
789.143
817.813
847.024
876.791
907.121
938.011
969.449
1001.41
1033.86
1066.75
1100.02
1133.59
1167.37
1201.21
1234.97
1268.46
1301.42
1333.58
1364.6
1394.1
1421.68
1446.9
1469.31
1488.47
1503.94
1515.29
1522.27
1524.83
1523.18
1517.58
1507.32
1491.23
1468.61
1440.83
1408.85
1373.32
1334.74
1293.7
1250.82
1206.71
1161.98
1117.2
1072.87
1029.42
987.213
946.532
907.604
870.594
835.611
802.724
771.966
743.343
716.84
692.426
670.057
649.68
631.257
614.812
600.4
588.012
577.547
568.816
561.551
555.412
550.02
441.085
462.139
484.062
506.708
529.948
553.651
577.725
602.156
626.981
652.227
677.92
704.086
730.755
757.954
785.715
814.061
843.017
872.598
902.815
933.671
965.159
997.264
1029.96
1063.21
1096.97
1131.18
1165.75
1200.6
1235.59
1270.56
1305.3
1339.58
1373.08
1405.47
1436.37
1465.36
1492.01
1515.74
1535.66
1549.95
1557.19
1558.97
1557.35
1555.54
1553.4
1550.71
1545.61
1532.53
1508.39
1476.61
1441.1
1402.38
1361.1
1317.8
1273.09
1227.56
1181.79
1136.36
1091.71
1048.23
1006.23
965.963
927.611
891.304
857.125
825.111
795.267
767.568
741.971
718.418
696.844
677.196
659.464
643.641
629.656
617.364
606.543
596.902
588.086
579.711
470.463
490.089
510.609
531.902
553.86
576.368
599.333
622.723
646.557
670.859
695.649
720.948
746.781
773.166
800.123
827.666
855.807
884.553
913.905
943.858
974.392
1005.48
1037.1
1069.22
1101.78
1134.73
1167.99
1201.46
1235.01
1268.5
1301.75
1334.53
1366.57
1397.59
1427.24
1455.16
1480.98
1504.21
1524.81
1538.59
1546.61
1551.08
1553.22
1554.12
1553.58
1550.7
1543.79
1530.82
1510.39
1482.6
1450.32
1414.76
1376.56
1336.24
1294.31
1251.34
1207.84
1164.38
1121.41
1079.32
1038.43
999.01
961.257
925.32
891.309
859.284
829.264
801.231
775.136
750.914
728.501
707.856
688.96
671.775
656.216
642.134
629.305
617.427
606.127
595.005
494.774
512.79
531.696
551.388
571.776
592.751
614.219
636.129
658.477
681.273
704.523
728.24
752.427
777.087
802.233
827.872
854.003
880.623
907.721
935.283
963.283
991.687
1020.46
1049.57
1078.96
1108.57
1138.32
1168.12
1197.87
1227.43
1256.65
1285.36
1313.36
1340.42
1366.26
1390.61
1413.21
1433.46
1452.39
1468.51
1480.89
1489.58
1494.75
1496.35
1494.11
1487.82
1477.29
1462.43
1443.37
1420.44
1394.03
1364.53
1332.37
1298
1261.91
1224.57
1186.47
1148.06
1109.73
1071.85
1034.73
998.625
963.74
930.235
898.238
867.837
839.074
811.954
786.451
762.515
740.089
719.144
699.656
681.582
664.838
649.296
634.768
620.986
607.589
594.166
512.961
529.157
546.199
564.004
582.49
601.546
621.071
640.996
661.289
681.946
702.966
724.347
746.08
768.155
790.568
813.316
836.391
859.778
883.459
907.412
931.611
956.021
980.604
1005.32
1030.1
1054.91
1079.67
1104.3
1128.71
1152.81
1176.46
1199.55
1221.92
1243.42
1263.86
1283.02
1300.71
1316.66
1330.73
1342.74
1352.43
1359.48
1363.67
1364.78
1362.75
1357.54
1349.11
1337.49
1322.77
1305.09
1284.65
1261.68
1236.47
1209.34
1180.61
1150.63
1119.74
1088.28
1056.55
1024.86
993.456
962.575
932.399
903.082
874.755
847.515
821.42
796.495
772.742
750.14
728.664
708.293
689.007
670.772
653.525
637.165
621.545
606.445
591.541
576.443
523.694
537.862
552.792
568.403
584.615
601.326
618.437
635.875
653.591
671.56
689.767
708.2
726.843
745.676
764.684
783.852
803.162
822.599
842.139
861.758
881.433
901.134
920.829
940.48
960.04
979.458
998.68
1017.65
1036.29
1054.53
1072.27
1089.42
1105.88
1121.54
1136.28
1149.96
1162.45
1173.59
1183.24
1191.24
1197.48
1201.8
1204.1
1204.23
1202.17
1197.87
1191.3
1182.5
1171.49
1158.37
1143.24
1126.23
1107.52
1087.28
1065.72
1043.06
1019.51
995.294
970.622
945.702
920.722
895.851
871.235
847
823.259
800.103
777.593
755.767
734.645
714.229
694.515
675.496
657.166
639.501
622.459
605.969
589.928
574.172
558.43
542.344
525.334
537.291
549.861
563.004
576.642
590.68
605.028
619.614
634.386
649.303
664.337
679.465
694.666
709.919
725.205
740.504
755.798
771.066
786.289
801.443
816.509
831.467
846.293
860.961
875.435
889.674
903.638
917.284
930.561
943.407
955.763
967.564
978.747
989.241
998.97
1007.86
1015.82
1022.77
1028.63
1033.31
1036.73
1038.83
1039.54
1038.79
1036.57
1032.85
1027.62
1020.89
1012.68
1003.02
991.983
979.633
966.06
951.364
935.66
919.066
901.711
883.723
865.232
846.364
827.239
807.967
788.643
769.357
750.187
731.205
712.462
693.997
675.834
657.986
640.458
623.253
606.368
589.792
573.499
557.442
541.558
525.733
509.762
493.331
516.013
525.719
535.851
546.399
557.317
568.529
579.957
591.537
603.22
614.966
626.74
638.514
650.263
661.968
673.607
685.165
696.625
707.971
719.185
730.248
741.144
751.859
762.375
772.673
782.73
792.518
802.005
811.164
819.962
828.36
836.321
843.807
850.78
857.201
863.027
868.216
872.725
876.509
879.526
881.733
883.09
883.559
883.111
881.722
879.373
876.049
871.745
866.461
860.206
852.999
844.865
835.84
825.966
815.292
803.875
791.777
779.062
765.799
752.057
737.906
723.411
708.636
693.637
678.466
663.174
647.804
632.393
616.969
601.551
586.154
570.783
555.445
540.139
524.862
509.597
494.319
478.991
463.543
447.833
431.604
494.057
501.581
509.36
517.393
525.657
534.106
542.688
551.35
560.049
568.752
577.432
586.062
594.622
603.091
611.454
619.694