/*--------------------------------*- C++ -*----------------------------------*\
| =========                 |                                                 |
| \\      /  F ield         | OpenFOAM: The Open Source CFD Toolbox           |
|  \\    /   O peration     | Version:  v2012                                 |
|   \\  /    A nd           | Website:  www.openfoam.com                      |
|    \\/     M anipulation  |                                                 |
\*---------------------------------------------------------------------------*/
FoamFile
{
    version     2.0;
    format      ascii;
    class       volScalarField;
    location    "582";
    object      k;
}
// * * * * * * * * * * * * * * * * * * * * * * * * * * * * * * * * * * * * * //

dimensions      [0 2 -2 0 0 0 0];


internalField   nonuniform List<scalar> 
6598
(
1.43378
1.79679
1.86177
1.87821
1.88519
1.88519
1.87821
1.86177
1.79679
1.43378
0.831618
1.30607
1.43266
1.47207
1.48435
1.48435
1.47207
1.43266
1.30607
0.831618
0.542307
0.982704
1.13063
1.18494
1.20287
1.20287
1.18494
1.13063
0.982704
0.542308
0.384342
0.764768
0.912735
0.97408
0.99614
0.99614
0.97408
0.912736
0.764769
0.384342
0.289231
0.61283
0.75175
0.814723
0.839035
0.839035
0.814724
0.751751
0.612831
0.289232
0.227478
0.503228
0.630049
0.69145
0.716465
0.716466
0.691451
0.630051
0.503231
0.227479
0.18495
0.42167
0.536052
0.594194
0.618845
0.618845
0.594196
0.536055
0.421674
0.184951
0.154264
0.3593
0.462017
0.516151
0.539784
0.539785
0.516153
0.462021
0.359304
0.154265
0.131279
0.31046
0.402669
0.452587
0.474854
0.474855
0.452591
0.402674
0.310466
0.131281
0.113532
0.271426
0.354341
0.400136
0.420889
0.420891
0.400142
0.354349
0.271435
0.113535
0.0994828
0.239675
0.314437
0.35635
0.375567
0.37557
0.356358
0.314447
0.239686
0.0994865
0.0881261
0.213449
0.281079
0.319418
0.337149
0.337153
0.319429
0.281093
0.213464
0.0881313
0.078784
0.191497
0.252887
0.287979
0.304312
0.304317
0.287992
0.252907
0.191519
0.078791
0.0709838
0.172909
0.228828
0.26099
0.276032
0.27604
0.261009
0.228855
0.172939
0.0709933
0.0643872
0.157007
0.208117
0.237648
0.251509
0.251519
0.237675
0.208154
0.157048
0.0644001
0.0587463
0.14328
0.190149
0.217321
0.23011
0.230124
0.217358
0.1902
0.143335
0.0587639
0.0538756
0.131334
0.174449
0.199508
0.211327
0.211346
0.199559
0.17452
0.131409
0.0538995
0.0496339
0.120861
0.160644
0.183808
0.194753
0.194778
0.183878
0.160744
0.120964
0.0496663
0.0459117
0.111621
0.148433
0.169899
0.180056
0.180089
0.169992
0.14857
0.111764
0.0459557
0.0426235
0.103424
0.137582
0.157524
0.166974
0.167018
0.15765
0.137766
0.103595
0.0426812
0.0397728
0.0962789
0.128106
0.146701
0.155526
0.155586
0.14687
0.128352
0.0965351
0.0398777
0.0372167
0.0898565
0.119586
0.13697
0.145235
0.145313
0.137194
0.119916
0.0902209
0.0382613
0.0349124
0.0840496
0.111879
0.128166
0.135924
0.136025
0.128454
0.112308
0.0846091
0.0376323
0.0328252
0.0787761
0.104879
0.12017
0.127471
0.127595
0.120522
0.105388
0.0796718
0.0380372
0.0309259
0.0739672
0.0984977
0.112882
0.119768
0.119914
0.113282
0.099081
0.0754353
0.0395474
0.0291902
0.0695644
0.0926578
0.106215
0.112724
0.112892
0.106655
0.0933798
0.0719097
0.042024
0.027597
0.0655154
0.0872898
0.10009
0.106257
0.106454
0.100614
0.088278
0.0689992
0.0452281
0.0260822
0.0616665
0.0821976
0.0942882
0.10014
0.100378
0.0949576
0.0836087
0.0666123
0.0490044
0.0246844
0.0581094
0.0774943
0.0889339
0.0945021
0.0947962
0.0898113
0.0794784
0.0648016
0.0528801
0.0233897
0.054813
0.0731435
0.0839888
0.0893055
0.0896715
0.0851367
0.0758403
0.06345
0.0559467
0.0221857
0.0517479
0.0691052
0.0794078
0.0845038
0.0849587
0.080887
0.0726373
0.0624407
0.0582679
0.0210615
0.0488869
0.0653445
0.0751519
0.0800562
0.080617
0.0770187
0.069811
0.0616549
0.0599001
0.0200074
0.046206
0.0618308
0.0711867
0.0759271
0.0766096
0.07349
0.0672953
0.0609177
0.0608907
0.0190149
0.0436843
0.0585368
0.0674816
0.0720843
0.0729032
0.0702614
0.0650281
0.0601605
0.0612977
0.0180761
0.0413031
0.0554383
0.0640098
0.0684994
0.0694671
0.0672951
0.0629501
0.0593282
0.0611809
0.017184
0.0390459
0.0525136
0.0607471
0.0651468
0.0662734
0.0645562
0.0610145
0.0583847
0.0606013
0.0163323
0.0368981
0.0497437
0.0576722
0.0620037
0.0632968
0.0620138
0.059183
0.0573121
0.0596226
0.0155151
0.0348466
0.0471114
0.054766
0.0590496
0.0605148
0.0596409
0.0574275
0.05611
0.0583125
0.0147272
0.0328802
0.0446018
0.0520116
0.0562664
0.0579071
0.0574154
0.0557298
0.0547941
0.0567442
0.0139636
0.0309893
0.0422012
0.0493936
0.0536374
0.0554562
0.0553195
0.0540817
0.0533939
0.0549974
0.0132202
0.0291653
0.0398976
0.0468979
0.0511473
0.0531461
0.0533398
0.0524836
0.0519488
0.0531569
0.0124929
0.0274007
0.0376793
0.0445105
0.048781
0.0509619
0.0514654
0.0509413
0.0505035
0.0513098
0.0117781
0.0256886
0.0355351
0.0422172
0.0465227
0.048888
0.049686
0.0494621
0.049101
0.049539
0.0110725
0.0240228
0.0334529
0.0400021
0.0443542
0.0469064
0.047989
0.0480495
0.0477758
0.047914
0.0103732
0.0223976
0.0314199
0.0378468
0.0422539
0.0449946
0.0463561
0.0466988
0.0465461
0.0464811
0.00967714
0.0208076
0.0294221
0.0357298
0.0401948
0.0431234
0.0447605
0.0453915
0.0454075
0.0452536
0.00898167
0.0192471
0.0274437
0.0336253
0.038144
0.0412554
0.0431639
0.0440926
0.0443292
0.0442051
0.00828384
0.0177102
0.0254674
0.0315036
0.0360615
0.0393439
0.0415158
0.0427494
0.0432536
0.0432698
0.00758042
0.0161909
0.0234744
0.0293309
0.0339013
0.0373334
0.0397539
0.0412925
0.0420993
0.0423468
0.00686743
0.0146829
0.0214456
0.0270713
0.0316126
0.0351617
0.0378065
0.0396401
0.0407682
0.0413115
0.00613935
0.013177
0.019362
0.02469
0.0291452
0.0327655
0.0355992
0.0377054
0.039155
0.0400295
0.00538793
0.0116599
0.0172084
0.0221614
0.0264592
0.0300911
0.0330653
0.0354084
0.0371611
0.0383741
0.00459346
0.0101293
0.0149772
0.0194775
0.02354
0.0271122
0.0301655
0.0326948
0.0347141
0.0362469
0.0037305
0.00872374
0.0127848
0.0167144
0.0204367
0.0238599
0.0269147
0.0295629
0.0317896
0.0335963
0.00281246
0.00751851
0.0109022
0.0141547
0.017383
0.0205143
0.0234492
0.0261107
0.0284546
0.0304534
0.00181459
0.00635587
0.00939203
0.0120803
0.0147528
0.017448
0.0200965
0.0226143
0.0249305
0.0269936
0.0010277
0.00493576
0.00794187
0.0104191
0.0127275
0.0150182
0.0173045
0.0195379
0.0216586
0.0236103
0.000814018
0.00312719
0.00620541
0.00878301
0.0110492
0.0131578
0.0151711
0.0170925
0.0189054
0.0205873
0.000838142
0.00201082
0.00453409
0.0070159
0.0093372
0.0113807
0.0132012
0.0148185
0.016252
0.0175335
0.000930327
0.00162437
0.00243396
0.0036207
0.0048853
0.00608557
0.00696592
0.00772852
0.00839278
0.00895169
0.00845787
0.00321783
0.00318207
0.00320167
0.00316827
0.00303673
0.00275752
0.00249868
0.00226577
0.00205268
0.00185538
0.0016778
0.0015187
0.00137566
0.00124493
0.00112743
0.00102405
0.000929401
0.000839777
0.000752355
0.000664482
0.000573231
0.000472776
0.000355453
0.000202138
0.016532
0.00721868
0.00637652
0.00617504
0.00598633
0.00564953
0.00510224
0.0044599
0.00389766
0.00342653
0.00303587
0.00271864
0.0024637
0.0022569
0.00208486
0.00192639
0.00176414
0.00159659
0.00142518
0.00125356
0.00108773
0.000933378
0.000802447
0.000673685
0.000375107
0.0252757
0.0126599
0.00905165
0.00780744
0.00702462
0.00624499
0.00537522
0.00444265
0.00369734
0.00314514
0.00273427
0.00243248
0.00220982
0.00204782
0.00192849
0.00183204
0.00173435
0.00162799
0.00150709
0.00136901
0.0012168
0.0010594
0.000915311
0.000783623
0.000432527
0.0350852
0.0193667
0.0123444
0.00967271
0.00795624
0.00651783
0.00524235
0.00414382
0.00323446
0.00261293
0.00218358
0.00189859
0.00171143
0.00159872
0.00153702
0.00150527
0.00147822
0.00144191
0.00138601
0.00130361
0.00119321
0.0010608
0.000922762
0.000782988
0.000437318
0.0448306
0.0280773
0.0170209
0.0122124
0.00921534
0.00695346
0.00520258
0.00390227
0.00295211
0.00226968
0.00178697
0.00147768
0.00129057
0.00119867
0.00117178
0.00118128
0.00120745
0.00122353
0.00121658
0.00117852
0.00110595
0.0010018
0.000877951
0.000736825
0.000413034
0.0523595
0.0374082
0.0235957
0.015755
0.0109888
0.00771117
0.0054087
0.00385284
0.00281293
0.00210276
0.00160256
0.00125889
0.00104727
0.000946175
0.000927937
0.000956474
0.00100735
0.00104824
0.00106518
0.00105066
0.00100139
0.000918626
0.000809996
0.000673669
0.000376062
0.0576419
0.046499
0.0308882
0.0201266
0.0133887
0.0088584
0.0058892
0.00401418
0.0028406
0.00208326
0.00156532
0.00120553
0.000974106
0.000851464
0.00081394
0.000831132
0.000875464
0.000916115
0.00093715
0.000930931
0.000894833
0.00082995
0.000739673
0.000616298
0.000339601
0.0616211
0.053954
0.0380223
0.0250727
0.0163094
0.0104021
0.00664202
0.00438363
0.00303137
0.00220033
0.00165359
0.00127597
0.00101849
0.000859935
0.000784168
0.000768604
0.000787957
0.000814887
0.000830165
0.000826385
0.000802637
0.000762787
0.000711457
0.000633762
0.000386652
0.0645861
0.0598326
0.044658
0.030396
0.019737
0.0123669
0.00768848
0.00497262
0.00339729
0.00246105
0.00186636
0.00146474
0.00118061
0.000980325
0.000851702
0.000784952
0.000767307
0.000778535
0.000791122
0.000799324
0.000805802
0.000819517
0.000852885
0.00093138
0.00123813
0.0667035
0.0641778
0.0506539
0.0358405
0.0233983
0.0145808
0.00899076
0.0057654
0.00394707
0.00287996
0.00221555
0.00178246
0.00148418
0.0012664
0.00110677
0.00100038
0.000949801
0.000958836
0.000994767
0.00105815
0.00116332
0.00133891
0.00162698
0.00204731
0.00251594
0.0681103
0.0672386
0.0555845
0.0405303
0.0269717
0.0169346
0.0104765
0.00676425
0.00469636
0.00348474
0.00272904
0.0022457
0.00193376
0.00172975
0.0015973
0.00151977
0.00149484
0.00153202
0.00162143
0.00176451
0.00196616
0.00222297
0.0025095
0.00278831
0.00304159
0.0688729
0.0692232
0.0593675
0.0445657
0.0304092
0.0193779
0.0121279
0.00795028
0.00564177
0.00428862
0.00343479
0.00287828
0.00251784
0.00229512
0.00217365
0.0021277
0.0021407
0.00219893
0.00229694
0.00243272
0.00260259
0.00280219
0.00303366
0.00332559
0.00366222
0.0690753
0.0702828
0.0620367
0.0480337
0.0337294
0.0218818
0.0139126
0.00928557
0.00675062
0.00526804
0.00433322
0.00371604
0.00329471
0.00301098
0.00284046
0.00276342
0.0027659
0.00281836
0.00291904
0.00306109
0.0032431
0.00346812
0.00374706
0.00409396
0.00448545
0.0687559
0.0705442
0.0637141
0.0509143
0.0366559
0.0244012
0.0158147
0.0107384
0.00797952
0.00637543
0.00537277
0.00473611
0.00430648
0.00400386
0.00380139
0.00368659
0.00365465
0.00367557
0.00375517
0.00389343
0.00409814
0.00435716
0.00464634
0.00496996
0.00530909
0.0679498
0.0701274
0.0645981
0.0532156
0.03936
0.0270405
0.017876
0.0123029
0.00927371
0.0075865
0.00653511
0.00586749
0.00544165
0.00515771
0.00496732
0.00484955
0.00477832
0.00477132
0.00482786
0.00494454
0.00511354
0.00532294
0.00556361
0.00582692
0.00609948
0.0667005
0.0691347
0.06481
0.054924
0.0419098
0.0296631
0.0201838
0.0140264
0.0106187
0.00880986
0.0077467
0.00706454
0.00663039
0.00634634
0.00615846
0.00602571
0.00594182
0.00591389
0.00594081
0.00601872
0.00614145
0.00630001
0.00648429
0.00668453
0.0068916
0.065059
0.0676477
0.0644276
0.0560097
0.0443674
0.0323608
0.0226722
0.016036
0.0121145
0.0100167
0.008896
0.00822578
0.00780404
0.0075308
0.00733741
0.007201
0.00711531
0.00707691
0.00708209
0.00712633
0.00720455
0.00731082
0.0074386
0.00758133
0.00773371
0.0630831
0.0657363
0.0635216
0.0565693
0.0464747
0.0351703
0.0253769
0.0183012
0.0138765
0.0113856
0.0100386
0.00929655
0.0088539
0.00857991
0.00840669
0.00829937
0.00824
0.00821818
0.00822641
0.00825769
0.0083102
0.00838085
0.00846693
0.00856574
0.00867484
0.0608394
0.0634648
0.0621337
0.0566011
0.0480435
0.0380682
0.0283485
0.0209018
0.0159271
0.0129578
0.0112965
0.0103824
0.00986794
0.00957456
0.00941361
0.00933575
0.00931168
0.00932401
0.00936079
0.00941183
0.00947222
0.00953563
0.0096037
0.00967722
0.00975661
0.0584056
0.0609031
0.0603117
0.0561141
0.0490748
0.040487
0.0316806
0.023952
0.0184454
0.0149289
0.0128568
0.0116885
0.0110437
0.0106913
0.0105113
0.0104383
0.0104333
0.0104726
0.0105404
0.0106247
0.0107138
0.0107987
0.0108768
0.0109475
0.0110145
0.0558722
0.058135
0.0581114
0.0551142
0.0495418
0.0423632
0.0346772
0.0274807
0.0215421
0.0174621
0.0148892
0.0133689
0.0125065
0.012039
0.0118067
0.0117171
0.0117186
0.0117778
0.0118712
0.0119809
0.0120942
0.0122038
0.0123005
0.0123806
0.0124446
0.0533411
0.0552644
0.0556122
0.05363
0.0494242
0.0436428
0.0371445
0.0307495
0.0251089
0.0206842
0.0175426
0.0155871
0.0144171
0.0137509
0.013404
0.0132578
0.0132384
0.0132975
0.013401
0.0135255
0.0136536
0.013774
0.0138808
0.0139699
0.014038
0.0509205
0.0524162
0.052928
0.0517305
0.0487202
0.0442719
0.0389982
0.0335506
0.0284778
0.0241757
0.0208393
0.0184817
0.0169325
0.015979
0.0154483
0.015186
0.0150968
0.0151175
0.0152034
0.0153216
0.0154494
0.0155727
0.0156832
0.0157761
0.0158532
0.0487132
0.0497282
0.0502084
0.0495365
0.0474915
0.0442325
0.0401529
0.0357267
0.0314
0.0275174
0.0242891
0.0217993
0.0200092
0.0188058
0.018054
0.0176249
0.0174182
0.0173584
0.0173898
0.0174688
0.0175687
0.0176755
0.0177796
0.0178749
0.017961
0.0468014
0.0473335
0.0476268
0.0472216
0.0458684
0.0435809
0.0405744
0.0371645
0.0336777
0.0303966
0.027522
0.0251624
0.0233429
0.0220233
0.0211226
0.0205472
0.0202109
0.0200368
0.019975
0.0199848
0.0200383
0.0201188
0.0202138
0.0203159
0.0204175
0.0452298
0.0453357
0.0453533
0.0449946
0.0440509
0.042466
0.0403295
0.037826
0.0351755
0.0325852
0.0302206
0.0281915
0.0265486
0.0252897
0.0243726
0.0237305
0.0233005
0.0230284
0.0228804
0.0228303
0.0228512
0.022919
0.0230167
0.0231312
0.023253
0.0439916
0.0437822
0.0435173
0.0430602
0.0422818
0.0411197
0.0395971
0.0378068
0.0358794
0.0339525
0.0321485
0.0305588
0.0292368
0.0281928
0.0274017
0.0268082
0.0263753
0.0260929
0.025936
0.0258782
0.0258965
0.0259703
0.0260822
0.0262184
0.0263679
0.0430231
0.0426459
0.0421692
0.0415663
0.0407912
0.0398154
0.038646
0.0373273
0.0359308
0.0345393
0.0332327
0.0320765
0.0311136
0.0303552
0.0297846
0.0293412
0.0290247
0.028826
0.0287309
0.0287227
0.0287849
0.0289008
0.0290555
0.0292368
0.0294338
0.042208
0.041822
0.0412589
0.040555
0.0397282
0.0387923
0.0377687
0.0366912
0.0356044
0.034558
0.0336003
0.032773
0.0321042
0.0316017
0.0312517
0.0310003
0.0308415
0.0307694
0.030777
0.0308545
0.0309908
0.0311742
0.0313935
0.0316383
0.0318982
0.0413923
0.0411422
0.0406382
0.0399419
0.0391041
0.0381704
0.0371849
0.0361904
0.0352281
0.0343363
0.0335484
0.032891
0.0323816
0.0320246
0.0318101
0.0317033
0.0316699
0.0317048
0.0318015
0.0319529
0.032152
0.0323908
0.0326609
0.0329541
0.0332611
0.0404055
0.0404035
0.0400915
0.0395308
0.0387815
0.0379033
0.0369543
0.0359886
0.0350539
0.0341905
0.0334303
0.0327963
0.0323025
0.0319536
0.0317452
0.031661
0.0316745
0.0317423
0.031863
0.0320304
0.0322378
0.0324788
0.0327474
0.0330375
0.0333415
0.0390843
0.0394005
0.0393764
0.0390627
0.0385144
0.0377898
0.0369489
0.0360496
0.0351447
0.0342793
0.0334895
0.0328019
0.0322336
0.0317929
0.0314805
0.0312907
0.0312113
0.0312223
0.0313028
0.0314172
0.0315648
0.0317414
0.0319432
0.0321653
0.0324016
0.0372935
0.0379541
0.0382679
0.038273
0.0380131
0.0375371
0.0368979
0.0361494
0.0353432
0.0345256
0.0337358
0.0330047
0.0323546
0.0317996
0.0313467
0.0309971
0.0307474
0.0305895
0.0305124
0.0305
0.0305405
0.0306216
0.0307232
0.0308386
0.0309651
0.034947
0.0359365
0.0365921
0.0369394
0.0370101
0.0368418
0.0364766
0.0359596
0.0353363
0.0346496
0.0339377
0.033233
0.0325613
0.0319414
0.031386
0.0309023
0.0304933
0.0301583
0.0298938
0.0296938
0.0295514
0.0294582
0.0294037
0.0293794
0.0293787
0.0320409
0.0333052
0.0342624
0.0349276
0.0353214
0.0354702
0.0354056
0.035163
0.0347795
0.0342917
0.0337339
0.0331367
0.0325261
0.0319232
0.0313439
0.0307999
0.0302986
0.0298447
0.0294398
0.0290838
0.0287747
0.0285093
0.0282832
0.028092
0.0279315
0.0287091
0.030153
0.0313282
0.0322393
0.0328985
0.0333226
0.0335332
0.0335564
0.0334211
0.0331568
0.0327923
0.0323545
0.0318673
0.0313514
0.0308237
0.0302977
0.0297838
0.0292895
0.0288199
0.0283783
0.0279665
0.0275849
0.0272328
0.0269094
0.0266139
0.0252834
0.0267511
0.028008
0.0290466
0.0298589
0.030458
0.0308593
0.0310813
0.0311452
0.0310735
0.0308889
0.0306134
0.0302675
0.0298695
0.0294352
0.0289783
0.0285098
0.0280384
0.0275711
0.027113
0.0266679
0.0262384
0.0258261
0.025432
0.0250581
0.0220527
0.0233666
0.0245234
0.0255167
0.0263393
0.0269799
0.027442
0.0277438
0.0279025
0.0279359
0.0278613
0.0276961
0.0274564
0.0271572
0.0268121
0.0264329
0.0260295
0.0256105
0.025183
0.0247523
0.0243231
0.0238988
0.0234818
0.0230743
0.0226792
0.0186244
0.0195889
0.0204306
0.0211428
0.0217195
0.0221689
0.0224954
0.0227089
0.0228201
0.0228402
0.0227805
0.022652
0.0224654
0.0222308
0.0219572
0.021653
0.0213252
0.0209803
0.0206235
0.0202592
0.0198913
0.0195227
0.0191559
0.0187929
0.0184363
0.00940643
0.00980452
0.0101562
0.0104614
0.0107144
0.0109197
0.01108
0.0111982
0.0112771
0.0113201
0.0113304
0.0113115
0.0112668
0.0111994
0.0111127
0.0110096
0.0108929
0.0107651
0.0106286
0.0104853
0.0103371
0.0101854
0.0100317
0.00987696
0.00972229
0.00041146
0.000998841
0.00201096
0.00231453
0.00251621
0.00266968
0.0028931
0.00303083
0.00343225
0.00336555
0.00372962
0.00423975
0.00409742
0.00452624
0.00496077
0.00490028
0.00526025
0.00559545
0.00564533
0.00593192
0.00619477
0.00636205
0.00658838
0.00680012
0.00709376
0.00727367
0.00744671
0.00788711
0.00802872
0.00816907
0.00878788
0.00889591
0.00900621
0.00983842
0.00991787
0.0100007
0.0110774
0.0111359
0.0111954
0.0124959
0.0125391
0.0125801
0.0140868
0.0141237
0.0141557
0.0159105
0.015954
0.01599
0.0180319
0.0180899
0.0181398
0.0205078
0.020587
0.020659
0.0233671
0.0234733
0.0235741
0.0265117
0.0266512
0.0267878
0.029623
0.0298104
0.0299975
0.0321441
0.0323893
0.0326365
0.0335482
0.0338357
0.0341269
0.0336256
0.0339124
0.034205
0.0326243
0.0328522
0.0330876
0.0310874
0.0312154
0.0313505
0.0293945
0.0294226
0.0294611
0.0278099
0.0277072
0.0276193
0.0263707
0.0261475
0.0259393
0.0247398
0.0244378
0.0241476
0.0223372
0.0220066
0.0216838
0.0181256
0.0178217
0.0175227
0.009587
0.00945329
0.00932122
0.000110829
0.000254259
0.000386652
0.000497794
0.000596788
0.000685217
0.00076638
0.000841844
0.000912655
0.000979522
0.00104297
0.0011034
0.00116117
0.00121659
0.00126993
0.00132149
0.0013715
0.00142022
0.00146788
0.00151472
0.00156097
0.00160685
0.00165259
0.00169842
0.00174457
0.00179129
0.00183886
0.00188759
0.00193781
0.00198991
0.00204437
0.00210176
0.00216277
0.00222831
0.00229735
0.00236918
0.00244394
0.00252191
0.00260351
0.00268846
0.00277695
0.00286963
0.00296676
0.0030686
0.00317549
0.00328774
0.00340562
0.00352942
0.00365936
0.00379559
0.0039381
0.00408667
0.00424067
0.00439887
0.00455907
0.00471757
0.00486824
0.00500123
0.00510335
0.00516744
0.00520168
0.00521057
0.00519422
0.00512133
0.00499147
0.00480464
0.00455293
0.00425796
0.00393683
0.00359822
0.00325268
0.00290221
0.00259366
0.00230738
0.00203291
0.00176363
0.00149307
0.00120985
0.000898883
0.000514785
0.000421173
0.000783952
0.000989135
0.00116618
0.00135439
0.00154733
0.0017357
0.00191975
0.00209864
0.00227183
0.00243887
0.00259955
0.00275384
0.00290189
0.00304402
0.00318064
0.00331224
0.00343934
0.00356249
0.00368226
0.00379921
0.00391389
0.00402683
0.00413856
0.0042496
0.00436044
0.00447159
0.00458354
0.00469678
0.0048118
0.00492908
0.00504913
0.00517231
0.00529927
0.00543248
0.0055719
0.0057171
0.00586829
0.00602553
0.00618871
0.00635872
0.00653621
0.00672167
0.0069156
0.00711849
0.00733082
0.00755302
0.00778545
0.00802837
0.00828187
0.00854575
0.00881939
0.00910154
0.00938996
0.00968095
0.00996861
0.0102441
0.0104954
0.0107074
0.0108542
0.0109192
0.0108965
0.0107754
0.0105287
0.0101396
0.00964497
0.00904737
0.00840147
0.00773755
0.0070753
0.00643762
0.0058253
0.0051663
0.0044758
0.00377832
0.00310912
0.00250604
0.00200714
0.00158591
0.000857333
0.000647372
0.00123842
0.00151188
0.00177432
0.00205779
0.00234424
0.00262176
0.00288758
0.00314043
0.00338042
0.00360814
0.00382439
0.00403002
0.00422586
0.00441273
0.00459141
0.00476266
0.00492721
0.00508578
0.00523908
0.00538779
0.00553257
0.00567407
0.00581294
0.00594978
0.0060852
0.00621981
0.00635418
0.0064889
0.00662455
0.00676169
0.00690089
0.00704267
0.00718755
0.00733606
0.00749096
0.00765178
0.00781822
0.00799034
0.00816861
0.00835345
0.00854535
0.00874475
0.00895205
0.00916762
0.00939173
0.00962454
0.00986607
0.0101161
0.010374
0.010639
0.0109093
0.0111827
0.0114557
0.0117232
0.0119783
0.0122117
0.0124114
0.0125624
0.0126381
0.0126159
0.0124871
0.0122399
0.0118658
0.0113599
0.0107188
0.00995234
0.00916095
0.00835668
0.00755205
0.00680339
0.00612494
0.0054716
0.00480077
0.00411034
0.0034181
0.00276318
0.00219993
0.00172762
0.000917806
0.000849747
0.00166311
0.00202891
0.00237856
0.00273486
0.00308246
0.003411
0.00371989
0.00401045
0.00428476
0.0045448
0.00479224
0.00502836
0.00525418
0.00547047
0.00567793
0.00587718
0.00606882
0.00625345
0.00643167
0.00660409
0.00677132
0.00693397
0.00709265
0.00724799
0.00740058
0.00755103
0.00769994
0.0078479
0.0079955
0.00814332
0.00829194
0.00844193
0.00859383
0.0087482
0.00890561
0.00906879
0.00923693
0.00940995
0.00958799
0.00977129
0.00996016
0.0101548
0.0103555
0.0105622
0.0107749
0.0109932
0.0112166
0.0114443
0.0116749
0.0119065
0.0121366
0.0123618
0.0125777
0.0127787
0.0129575
0.013105
0.0132102
0.0132589
0.0132324
0.0130974
0.0128473
0.0124743
0.0119791
0.0113693
0.0106577
0.00986068
0.00900049
0.00809651
0.00716625
0.00630129
0.0055511
0.00491472
0.0043171
0.0037307
0.0031479
0.00258369
0.00207207
0.00161087
0.000849862
0.00104921
0.00208891
0.00255218
0.00297045
0.00337428
0.0037512
0.0040988
0.00442353
0.00473003
0.00502197
0.00530179
0.00557105
0.0058307
0.00608127
0.00632311
0.00655646
0.00678158
0.00699876
0.00720832
0.00741069
0.00760629
0.00779561
0.00797919
0.00815755
0.00833127
0.0085009
0.00866704
0.00883025
0.00899113
0.00915025
0.0093082
0.00946556
0.00962289
0.00978076
0.00993974
0.0101004
0.0102638
0.0104318
0.0106039
0.0107798
0.0109597
0.0111436
0.0113317
0.0115238
0.0117197
0.0119192
0.0121214
0.0123253
0.0125296
0.0127323
0.0129307
0.0131216
0.0133006
0.0134628
0.0136021
0.0137111
0.0137806
0.0137998
0.0137556
0.0136326
0.0134151
0.0130884
0.0126374
0.0120611
0.0113756
0.0106001
0.00975118
0.00883617
0.0078647
0.00685366
0.0058544
0.00492779
0.00416263
0.0035881
0.003104
0.00266037
0.00223415
0.00182453
0.0014224
0.000728157
0.00130157
0.00254708
0.00308673
0.00354399
0.00396344
0.00434342
0.00468691
0.00501178
0.00532338
0.0056257
0.00592047
0.00620834
0.0064894
0.00676339
0.00702998
0.00728888
0.00753987
0.00778288
0.00801796
0.00824526
0.00846504
0.00867764
0.00888347
0.00908298
0.00927667
0.00946505
0.00964866
0.00982807
0.0100038
0.0101765
0.0103467
0.010515
0.010682
0.0108483
0.0110143
0.0111808
0.0113483
0.0115186
0.0116925
0.0118696
0.0120497
0.0122329
0.0124192
0.0126084
0.0128002
0.012994
0.013189
0.013384
0.0135773
0.0137667
0.0139493
0.0141214
0.0142784
0.0144145
0.0145233
0.014597
0.0146269
0.0146024
0.014512
0.0143396
0.0140702
0.013692
0.0131963
0.0125819
0.0118583
0.0110444
0.0101657
0.00922591
0.00822697
0.00715853
0.00603381
0.00490389
0.00386559
0.00306806
0.00255837
0.00219666
0.00188704
0.00157677
0.00122314
0.000628433
0.00164316
0.00314295
0.00365433
0.00410099
0.00450098
0.00485658
0.00518306
0.00550114
0.00581422
0.00612476
0.00643308
0.00673858
0.00704028
0.0073371
0.00762804
0.00791225
0.00818909
0.00845813
0.00871912
0.00897198
0.00921679
0.00945374
0.00968311
0.00990524
0.0101206
0.0103295
0.0105327
0.0107305
0.0109235
0.0111123
0.0112975
0.0114797
0.0116594
0.0118374
0.0120141
0.0121903
0.0123664
0.0125432
0.0127233
0.0129063
0.0130921
0.0132808
0.0134722
0.0136665
0.0138632
0.0140619
0.0142619
0.014462
0.0146606
0.0148557
0.0150445
0.0152233
0.0153879
0.0155328
0.0156503
0.0157316
0.0157692
0.0157496
0.0156705
0.0155123
0.0152524
0.01488
0.0143837
0.0137589
0.0130135
0.0121677
0.0112637
0.0102879
0.00929307
0.00826581
0.00717921
0.00601478
0.00479286
0.00360586
0.00265373
0.00212648
0.00179277
0.00150473
0.00114236
0.00057095
0.00237331
0.00372315
0.00421726
0.00462885
0.0049848
0.00530218
0.00560972
0.00592037
0.00623497
0.00655363
0.00687511
0.00719761
0.00751922
0.0078381
0.00815268
0.00846164
0.00876394
0.00905884
0.00934582
0.00962459
0.00989502
0.0101572
0.0104111
0.0106572
0.0108957
0.0111271
0.0113517
0.01157
0.0117827
0.0119902
0.0121931
0.012392
0.0125876
0.0127806
0.0129715
0.013161
0.0133499
0.0135389
0.0137287
0.013922
0.0141184
0.0143179
0.0145207
0.0147269
0.0149365
0.0151491
0.0153644
0.0155815
0.0157992
0.0160157
0.0162286
0.0164348
0.0166304
0.0168103
0.0169683
0.0170972
0.0171884
0.0172296
0.0172106
0.0171148
0.016926
0.0166279
0.0162048
0.0156437
0.014948
0.0141193
0.0131918
0.0121885
0.0111541
0.0101246
0.00911176
0.00811206
0.00709667
0.00601669
0.0048552
0.00370781
0.00292569
0.00249589
0.00208744
0.00167907
0.00328832
0.00426722
0.00473209
0.00509126
0.00539704
0.00568398
0.00597952
0.00628595
0.00660325
0.00692993
0.00726361
0.00760163
0.00794139
0.00828052
0.00861698
0.00894909
0.00927548
0.00959512
0.00990727
0.0102114
0.0105072
0.0107946
0.0110736
0.0113442
0.0116068
0.0118617
0.0121092
0.0123498
0.012584
0.0128122
0.0130351
0.0132534
0.0134675
0.0136783
0.0138864
0.0140926
0.0142976
0.0145022
0.0147071
0.0149144
0.0151254
0.0153403
0.0155593
0.0157829
0.0160112
0.0162445
0.0164825
0.0167251
0.0169713
0.01722
0.0174694
0.0177172
0.01796
0.0181937
0.0184131
0.0186117
0.0187817
0.0189132
0.0189949
0.0190125
0.0189509
0.0187934
0.0185222
0.0181208
0.0175757
0.0168802
0.016041
0.0150747
0.0140138
0.0129265
0.0118543
0.0108486
0.00995781
0.00920026
0.00856895
0.00805756
0.00768372
0.00768744
0.00812031
0.00892804
0.00411106
0.00477692
0.00518002
0.00548728
0.00575867
0.00603297
0.00632044
0.00662393
0.00694295
0.00727533
0.00761813
0.00796818
0.00832245
0.0086782
0.00903305
0.00938503
0.0097325
0.0100742
0.0104091
0.0107366
0.0110561
0.0113674
0.0116703
0.0119648
0.0122512
0.0125294
0.0128
0.0130632
0.0133195
0.0135693
0.0138133
0.014052
0.0142861
0.0145163
0.0147433
0.014968
0.0151911
0.0154136
0.0156363
0.0158602
0.0160882
0.0163207
0.0165584
0.0168018
0.0170517
0.0173084
0.0175723
0.0178436
0.018122
0.0184068
0.0186971
0.018991
0.0192863
0.0195797
0.019867
0.020143
0.0204011
0.0206332
0.0208296
0.0209784
0.0210665
0.0210792
0.0210001
0.0208123
0.0204993
0.0200484
0.0194527
0.0187133
0.0178401
0.0168557
0.0158017
0.0147356
0.0137275
0.0128501
0.0121648
0.0117435
0.0116555
0.0119507
0.0125354
0.0134791
0.00477763
0.00525345
0.00559016
0.00586131
0.00611694
0.00638022
0.00665992
0.00695889
0.00727663
0.00761082
0.0079583
0.00831571
0.00867978
0.00904754
0.00941637
0.00978407
0.0101488
0.010509
0.0108636
0.0112116
0.0115523
0.0118854
0.0122105
0.0125275
0.0128364
0.0131372
0.0134303
0.0137158
0.0139941
0.0142657
0.014531
0.0147907
0.0150453
0.0152957
0.0155425
0.0157866
0.0160289
0.0162704
0.016512
0.0167548
0.0170005
0.0172515
0.0175086
0.0177725
0.0180443
0.0183247
0.0186146
0.0189144
0.0192244
0.0195447
0.0198747
0.0202135
0.0205594
0.0209101
0.0212625
0.0216125
0.0219547
0.0222827
0.0225887
0.0228633
0.0230959
0.0232746
0.0233865
0.0234178
0.023355
0.0231861
0.0229026
0.0225008
0.0219848
0.0213663
0.0206613
0.0199023
0.0191345
0.018415
0.0178223
0.0174486
0.0173716
0.0176496
0.0182922
0.019284
0.00535587
0.00571792
0.00600525
0.0062542
0.00649554
0.00674722
0.00701732
0.00730877
0.00762125
0.00795258
0.0082997
0.00865923
0.00902785
0.00940247
0.00978035
0.0101591
0.0105367
0.0109114
0.0112819
0.0116471
0.0120062
0.0123584
0.0127034
0.0130408
0.0133706
0.0136926
0.014007
0.0143139
0.0146136
0.0149065
0.0151929
0.0154735
0.0157488
0.0160194
0.0162863
0.0165501
0.0168119
0.0170726
0.0173334
0.0175954
0.0178596
0.0181292
0.0184053
0.0186891
0.0189819
0.0192847
0.0195986
0.0199247
0.0202636
0.0206158
0.0209814
0.02136
0.0217506
0.0221517
0.022561
0.0229753
0.0233905
0.0238013
0.0242015
0.0245835
0.024939
0.0252586
0.025532
0.0257488
0.025899
0.0259733
0.0259655
0.0258733
0.0257007
0.0254522
0.0251385
0.0247789
0.0243993
0.0240315
0.0237133
0.0234857
0.0233938
0.023457
0.0237501
0.0242383
0.00589952
0.0061913
0.00644454
0.00667733
0.00690591
0.00714595
0.00740481
0.0076858
0.0079891
0.00831298
0.00865471
0.00901113
0.00937903
0.00975532
0.0101372
0.0105222
0.0109081
0.011293
0.0116756
0.0120543
0.0124283
0.0127968
0.0131589
0.0135145
0.013863
0.0142044
0.0145386
0.0148656
0.0151856
0.0154989
0.0158058
0.0161066
0.0164021
0.0166927
0.0169793
0.0172627
0.0175438
0.0178237
0.0181034
0.0183843
0.0186675
0.0189548
0.019249
0.0195514
0.0198634
0.0201864
0.0205218
0.0208708
0.0212345
0.0216139
0.0220094
0.0224211
0.0228487
0.0232913
0.023747
0.0242136
0.0246876
0.0251649
0.0256401
0.0261072
0.0265589
0.0269875
0.0273846
0.0277416
0.0280501
0.0283025
0.0284929
0.0286189
0.0286786
0.0286723
0.0286043
0.0284821
0.0283147
0.0281133
0.0279069
0.0277142
0.0275571
0.0274446
0.0274522
0.0275741
0.00644048
0.00668724
0.00691575
0.00713481
0.00735373
0.00758293
0.00782989
0.00809833
0.00838928
0.0087018
0.00903375
0.00938237
0.00974471
0.0101178
0.0104989
0.0108855
0.0112752
0.0116662
0.0120568
0.0124454
0.012831
0.0132124
0.0135889
0.0139599
0.0143249
0.0146835
0.0150356
0.0153811
0.01572
0.0160524
0.0163785
0.0166988
0.0170136
0.0173236
0.0176293
0.0179317
0.0182316
0.01853
0.0188281
0.0191271
0.0194283
0.0197331
0.0200444
0.0203639
0.0206933
0.021034
0.0213878
0.0217561
0.0221403
0.0225416
0.0229609
0.0233987
0.0238551
0.0243295
0.0248209
0.0253272
0.0258459
0.0263732
0.0269046
0.0274347
0.0279572
0.0284651
0.0289508
0.0294066
0.0298244
0.0301968
0.0305178
0.0307817
0.0309836
0.0311202
0.0311899
0.0311917
0.0311241
0.030994
0.0308214
0.0306245
0.030414
0.0301991
0.030017
0.0298772
0.00700552
0.00721977
0.00742747
0.00763361
0.00784426
0.00806339
0.00829838
0.00855317
0.00882972
0.00912805
0.00944682
0.00978386
0.0101366
0.0105024
0.0108785
0.0112624
0.011652
0.012045
0.0124398
0.0128346
0.0132283
0.0136195
0.0140073
0.014391
0.0147698
0.0151434
0.0155112
0.0158732
0.0162291
0.0165791
0.0169231
0.0172615
0.0175946
0.0179228
0.0182469
0.0185674
0.0188852
0.0192014
0.0195171
0.0198334
0.0201517
0.0204735
0.0208004
0.0211355