/*--------------------------------*- C++ -*----------------------------------*\
| =========                 |                                                 |
| \\      /  F ield         | OpenFOAM: The Open Source CFD Toolbox           |
|  \\    /   O peration     | Version:  v2012                                 |
|   \\  /    A nd           | Website:  www.openfoam.com                      |
|    \\/     M anipulation  |                                                 |
\*---------------------------------------------------------------------------*/
FoamFile
{
    version     2.0;
    format      ascii;
    class       volScalarField;
    location    "582";
    object      nut;
}
// * * * * * * * * * * * * * * * * * * * * * * * * * * * * * * * * * * * * * //

dimensions      [0 2 -1 0 0 0 0];


internalField   nonuniform List<scalar> 
6598
(
0.00268897
0.00945246
0.0112423
0.0115351
0.0114905
0.0114905
0.0115351
0.0112423
0.00945246
0.00268897
0.00204789
0.00781169
0.0103614
0.01104
0.0111256
0.0111256
0.01104
0.0103614
0.0078117
0.00204789
0.00165374
0.00675416
0.0095562
0.0105321
0.0107624
0.0107624
0.0105321
0.00955621
0.00675417
0.00165374
0.00139221
0.00600519
0.0088569
0.0100343
0.0103915
0.0103915
0.0100343
0.00885692
0.00600521
0.00139221
0.00120772
0.00544093
0.00825716
0.00956035
0.010016
0.010016
0.00956036
0.00825718
0.00544096
0.00120772
0.00107106
0.00499641
0.00774145
0.00911618
0.00964224
0.00964225
0.00911621
0.00774149
0.00499644
0.00107106
0.000965764
0.00463411
0.00729419
0.00870325
0.00927626
0.00927627
0.00870329
0.00729424
0.00463416
0.000965767
0.000882016
0.00433088
0.00690218
0.00832065
0.00892239
0.00892242
0.00832071
0.00690226
0.00433096
0.00088202
0.000813659
0.00407168
0.00655495
0.00796641
0.00858343
0.00858347
0.0079665
0.00655509
0.0040718
0.000813665
0.000756666
0.00384632
0.00624439
0.00763822
0.00826089
0.00826094
0.00763836
0.00624459
0.00384651
0.000756676
0.000708302
0.00364768
0.0059642
0.00733372
0.00795533
0.00795542
0.00733393
0.0059645
0.00364795
0.000708315
0.000666648
0.00347058
0.00570952
0.0070507
0.00766669
0.00766682
0.00705101
0.00570996
0.00347099
0.000666668
0.000630324
0.0033112
0.00547652
0.00678713
0.00739449
0.00739468
0.0067876
0.00547718
0.00331181
0.000630352
0.000598307
0.00316663
0.00526218
0.00654119
0.007138
0.00713828
0.00654189
0.00526315
0.00316753
0.000598347
0.000569829
0.00303461
0.00506406
0.00631123
0.00689635
0.00689676
0.00631228
0.00506549
0.00303593
0.000569886
0.000544295
0.00291334
0.00488014
0.0060958
0.00666861
0.0066692
0.00609737
0.00488225
0.00291526
0.000544377
0.000521243
0.00280135
0.00470877
0.00589355
0.00645385
0.00645468
0.00589585
0.00471191
0.00280414
0.000521359
0.000500304
0.00269744
0.0045485
0.00570331
0.00625115
0.00625231
0.00570658
0.00455315
0.00270141
0.000500467
0.000481178
0.00260058
0.00439814
0.005524
0.00605964
0.00606126
0.00552862
0.00440478
0.00260637
0.000481409
0.000463627
0.00250995
0.00425672
0.0053548
0.00587866
0.00588095
0.00536134
0.00426613
0.00251714
0.000463941
0.000447855
0.00242667
0.00412602
0.00519794
0.00571073
0.00571399
0.00520755
0.0041423
0.00245827
0.000508615
0.000433225
0.00234797
0.00400224
0.00504929
0.00555167
0.00555632
0.00506361
0.00402996
0.0024117
0.00056893
0.000419599
0.00227317
0.0038843
0.00490758
0.00540021
0.00540678
0.00492852
0.00392797
0.00237997
0.000644723
0.000406863
0.00220179
0.00377156
0.00477217
0.00525573
0.00526469
0.00480134
0.00383373
0.00237509
0.000741545
0.000394917
0.00213343
0.00366344
0.00464242
0.00511758
0.00512909
0.00468008
0.00375154
0.00239485
0.000865581
0.000383674
0.00206769
0.0035594
0.00451777
0.00498522
0.00499977
0.00456395
0.00368415
0.00242847
0.00101767
0.000373057
0.00200417
0.00345883
0.00439752
0.00485801
0.00487654
0.00445723
0.00362559
0.00246633
0.00119516
0.000362674
0.00194077
0.0033586
0.00427816
0.00473247
0.00475639
0.00435735
0.00357456
0.00250791
0.00139855
0.000352822
0.00187908
0.00326102
0.00416233
0.00461141
0.00464221
0.00426615
0.00353229
0.00255479
0.00161394
0.000343445
0.00181884
0.00316588
0.00404993
0.00449491
0.00453412
0.00418316
0.00349841
0.00260854
0.00182174
0.000334489
0.00175977
0.0030727
0.0039405
0.00438254
0.00443173
0.00410773
0.00347254
0.00266925
0.00201896
0.000325904
0.00170158
0.00298102
0.00383353
0.00427387
0.00433463
0.00403924
0.00345426
0.00273578
0.00220305
0.000317644
0.00164394
0.00289035
0.00372852
0.00416844
0.00424234
0.0039771
0.00344282
0.0028048
0.00237191
0.000309664
0.00158651
0.00280019
0.00362491
0.00406573
0.00415435
0.00392068
0.00343732
0.00287469
0.00252431
0.000301923
0.00152901
0.00271001
0.0035221
0.00396515
0.00407007
0.00386926
0.00343663
0.00294362
0.00265971
0.000294379
0.00147114
0.00261925
0.00341947
0.00386606
0.00398881
0.00382201
0.00343963
0.00300997
0.00277818
0.000286991
0.00141265
0.00252737
0.00331632
0.00376773
0.00390981
0.00377801
0.00344509
0.00307239
0.00288025
0.000279719
0.00135336
0.00243385
0.00321195
0.00366938
0.0038322
0.00373622
0.00345173
0.00312987
0.00296694
0.000272524
0.00129315
0.00233822
0.00310562
0.00357013
0.00375498
0.00369549
0.00345829
0.00318182
0.00303971
0.000265365
0.00123196
0.00224006
0.00299657
0.003469
0.00367702
0.00365455
0.00346352
0.00322797
0.00310042
0.000258204
0.00116984
0.00213907
0.00288407
0.00336496
0.00359707
0.003612
0.00346616
0.0032683
0.00315124
0.000251001
0.00110689
0.00203503
0.00276739
0.00325687
0.0035137
0.00356627
0.00346488
0.00330285
0.0031945
0.000243715
0.00104328
0.00192785
0.00264584
0.00314348
0.00342529
0.00351559
0.00345818
0.00333145
0.00323233
0.000236302
0.000979224
0.00181755
0.00251877
0.00302347
0.00332997
0.00345785
0.00344419
0.00335345
0.00326626
0.000228718
0.000915004
0.00170426
0.0023856
0.00289541
0.00322566
0.00339059
0.00342054
0.00336735
0.0032966
0.000220911
0.000850891
0.00158821
0.00224584
0.00275782
0.00310996
0.00331084
0.00338413
0.00337047
0.00332193
0.000212825
0.000787131
0.00146972
0.00209909
0.0026092
0.00298031
0.00321521
0.00333109
0.00335885
0.00333865
0.00020439
0.000723928
0.00134914
0.00194514
0.00244819
0.00283404
0.00309992
0.00325683
0.00332717
0.00334094
0.00019552
0.000661425
0.00122688
0.001784
0.00227368
0.00266865
0.0029611
0.00315624
0.00326909
0.00332102
0.000186098
0.000599709
0.00110341
0.00161602
0.00208516
0.00248224
0.00279531
0.00302431
0.00317784
0.00326999
0.000175957
0.000538738
0.000979371
0.00144215
0.00188311
0.00227414
0.00260031
0.002857
0.00304723
0.00317903
0.000164837
0.000478427
0.00085578
0.00126442
0.00166975
0.0020459
0.00237625
0.00265254
0.00287312
0.00304095
0.00013657
0.000419737
0.000734681
0.00108665
0.00145011
0.00180259
0.00212717
0.00241312
0.00265516
0.00285168
9.68179e-05
0.000369021
0.000623197
0.00091675
0.0012332
0.00155377
0.00186215
0.00214614
0.002397
0.00260992
0.000110264
0.000324411
0.000535272
0.000771039
0.00103547
0.00131548
0.00159619
0.00186349
0.00210834
0.00232563
9.56607e-05
0.00030502
0.000480086
0.000666947
0.000879137
0.00111106
0.00135015
0.00158637
0.00181154
0.00201957
7.19908e-05
0.000298728
0.000449386
0.000607868
0.0007772
0.000959148
0.00115099
0.00134672
0.00153971
0.00172025
6.4071e-05
0.000281432
0.000444534
0.000580451
0.000689058
0.000794702
0.000911685
0.00103926
0.0011725
0.00130428
6.50134e-05
0.00021155
0.000418255
0.000540567
0.000653379
0.000681734
0.000725064
0.000797568
0.000892809
0.000990554
6.84955e-05
0.000113821
0.000139327
0.000169932
0.00019739
0.000220308
0.000235705
0.000248271
0.000258721
0.000267197
0.000124796
0.000154684
0.000153822
0.000154296
0.000153489
0.000150269
0.000143194
0.000136308
0.000129799
0.000123545
0.000117458
0.000111695
0.000106268
0.000101139
9.6214e-05
9.15608e-05
8.72623e-05
8.31317e-05
7.90218e-05
7.47957e-05
7.02921e-05
6.52875e-05
4.53207e-05
4.73214e-05
3.40352e-05
0.000223037
0.00046085
0.000657361
0.000741763
0.000769271
0.000767071
0.000688841
0.000628599
0.00061895
0.000611424
0.00057051
0.000533161
0.00049886
0.000467323
0.000437307
0.000400938
0.000356228
0.000308231
0.000260893
0.000216885
0.000178219
0.000146185
0.00012216
9.36469e-05
4.13185e-05
0.00036293
0.000596994
0.000798307
0.000934429
0.000980511
0.000951968
0.000773051
0.000656582
0.00060981
0.000611427
0.000651041
0.000694889
0.00066273
0.000634572
0.000608009
0.000576325
0.000531078
0.000473725
0.000407629
0.000337997
0.000271131
0.000212972
0.000167575
0.000131913
3.51508e-05
0.000610386
0.000626797
0.00085381
0.000977394
0.00101707
0.00099851
0.000890877
0.000744275
0.000648444
0.000618482
0.000639965
0.000662499
0.000638408
0.000625432
0.000617832
0.000607119
0.00058203
0.000539581
0.000480037
0.000407569
0.000330101
0.000257174
0.000196705
0.000146458
4.46135e-05
0.000939014
0.000823651
0.00099548
0.00103698
0.00103296
0.000988062
0.00092275
0.000851628
0.000744085
0.000665926
0.000622737
0.00057133
0.00054594
0.000544571
0.000556935
0.000569203
0.000566777
0.000542743
0.000496344
0.000431076
0.00035464
0.000277756
0.000210351
0.000150658
4.33572e-05
0.00119807
0.00114134
0.00120983
0.00116419
0.00109825
0.00100831
0.000913442
0.000824919
0.00073789
0.000649278
0.00056382
0.000496316
0.000460772
0.000460272
0.000484817
0.000513462
0.00052598
0.000513691
0.000477663
0.000421261
0.000351319
0.000277867
0.000210633
0.000147211
4.13711e-05
0.00140702
0.00152389
0.00144839
0.00132934
0.00120549
0.00106992
0.000946489
0.000839962
0.000737889
0.000633748
0.000535579
0.000457635
0.000412176
0.000401472
0.000418249
0.000445236
0.000462207
0.000456312
0.00042878
0.000382814
0.000324345
0.000261391
0.000200772
0.000138434
3.93144e-05
0.00161246
0.00176449
0.00168911
0.00152041
0.00134121
0.00116122
0.00100825
0.000884803
0.000767569
0.000647825
0.000536337
0.000447887
0.000390225
0.000363111
0.000361752
0.000374292
0.000384599
0.000379968
0.000359662
0.000325502
0.000281866
0.000234454
0.000187651
0.000122929
4.40138e-05
0.00181082
0.00198434
0.00192623
0.00173147
0.00150264
0.00127955
0.00109636
0.000957344
0.000826394
0.000690594
0.000564281
0.000464028
0.000393302
0.000347833
0.000323506
0.00031462
0.000312362
0.000306648
0.000292531
0.000270257
0.000242523
0.000212742
0.000165887
0.000134055
0.000139168
0.00200089
0.00218823
0.00215443
0.00195455
0.00167682
0.00141349
0.00120605
0.00105421
0.000915141
0.000765452
0.000623287
0.000510002
0.000428122
0.000369939
0.00032898
0.00030157
0.000285634
0.000278166
0.000269986
0.000260458
0.000251372
0.000245376
0.000245109
0.00023578
0.000196412
0.0021816
0.00237615
0.00236329
0.00215824
0.0018525
0.00155751
0.00133062
0.00117436
0.0010358
0.000878966
0.000722326
0.000594084
0.000501047
0.000436017
0.000390898
0.000360294
0.000341535
0.000333759
0.000330239
0.000329692
0.000332266
0.000338188
0.000340312
0.00035491
0.000389063
0.00235085
0.00254724
0.00255147
0.00234876
0.00202886
0.00170837
0.00146664
0.00131335
0.00118719
0.00103568
0.000871911
0.000728903
0.000620326
0.000543529
0.000491824
0.000458788
0.000439794
0.00043109
0.000427857
0.000429274
0.000435583
0.000448144
0.000470488
0.000510589
0.000577572
0.00250708
0.00270038
0.0027187
0.00252816
0.00220735
0.00186366
0.00160934
0.00146375
0.00136217
0.00121693
0.00107696
0.000929568
0.000808359
0.000716011
0.000650596
0.000608028
0.000584593
0.00057244
0.000570496
0.00057777
0.000595093
0.000625256
0.000673905
0.000749943
0.000864332
0.0026483
0.00283493
0.00286511
0.00269266
0.00237222
0.00202062
0.0017552
0.00161732
0.00154851
0.001303
0.00118
0.00114165
0.00107613
0.000980086
0.000906551
0.000854364
0.000822731
0.000804042
0.000800875
0.000813676
0.00084469
0.000896026
0.00097123
0.0010666
0.00113232
0.00277297
0.00295099
0.00299243
0.00284238
0.0025322
0.00218469
0.00190446
0.00176757
0.00173181
0.00154489
0.00132185
0.0012461
0.00123094
0.00123686
0.00124314
0.00119063
0.00114958
0.0011269
0.00112398
0.00114183
0.00115309
0.0011553
0.00119245
0.00127625
0.00141248
0.00288027
0.00304848
0.00310081
0.00297671
0.00268813
0.00234608
0.0020614
0.00191218
0.0018974
0.00192434
0.00164232
0.00150373
0.00145486
0.00143338
0.00142145
0.00140806
0.00139001
0.00136891
0.00135036
0.00134396
0.00136238
0.00140882
0.00148345
0.0015959
0.00174214
0.00297006
0.00312744
0.00318997
0.00309422
0.00284141
0.00250904
0.00222017
0.00205652
0.00203837
0.00210423
0.0021564
0.00197501
0.00188107
0.00183153
0.00179249
0.00176175
0.00173792
0.00172134
0.00171394
0.0017216
0.00175001
0.00180312
0.00188289
0.00198904
0.00211497
0.00304287
0.00318817
0.00325983
0.0031941
0.00298442
0.00267582
0.00238314
0.00219918
0.0021617
0.00223626
0.00234442
0.002432
0.00247931
0.00244023
0.00238541
0.00234483
0.00231371
0.00229123
0.00227907
0.00227833
0.00229069
0.00232039
0.0023702
0.00244196
0.00253417
0.0030999
0.00323143
0.00331064
0.00327454
0.00311025
0.00284543
0.00255473
0.00234828
0.00227544
0.00232864
0.002449
0.00257403
0.00267883
0.0027528
0.00280047
0.00283527
0.00286854
0.00290778
0.00295757
0.00293038
0.00290523
0.00289294
0.00289915
0.0029289
0.00298359
0.00314309
0.00325856
0.00334238
0.00333355
0.00321469
0.00300107
0.00274142
0.00251525
0.00240194
0.00241349
0.00251575
0.00265342
0.00278635
0.00290306
0.00300145
0.00308358
0.00315684
0.00322814
0.00330196
0.00338168
0.00346797
0.00343073
0.00339822
0.00339345
0.00341866
0.00317509
0.00327175
0.00335596
0.00337032
0.00329392
0.00313332
0.00291975
0.00270613
0.00255639
0.0025172
0.00257772
0.00269852
0.0028384
0.00297291
0.00309475
0.00320508
0.00330675
0.00340245
0.00349401
0.0035836
0.00367252
0.00376107
0.00379395
0.00377072
0.00377179
0.0031992
0.00327431
0.0033536
0.00338531
0.00334576
0.00323554
0.00307328
0.00289373
0.00274174
0.00265831
0.00266558
0.00274647
0.00286785
0.00300255
0.0031337
0.00325561
0.00336825
0.00347341
0.00357277
0.00366715
0.00375711
0.00384295
0.00392465
0.00399456
0.00399459
0.00321914
0.00327062
0.00333919
0.00338074
0.00337064
0.00330422
0.003192
0.00305566
0.00292534
0.00283178
0.00279773
0.00282852
0.00291203
0.00302825
0.00315357
0.00327786
0.00339677
0.00350899
0.00361422
0.0037124
0.00380355
0.00388774
0.00396518
0.00403621
0.00407755
0.00323847
0.00326587
0.00331835
0.00336129
0.0033713
0.00333988
0.00327129
0.0031791
0.0030821
0.00300148
0.00295593
0.00295592
0.00300143
0.00308325
0.00318721
0.00330109
0.00341672
0.00352928
0.003636
0.00373521
0.00382624
0.00390904
0.00398374
0.00401432
0.00403874
0.00325982
0.0032652
0.00329797
0.00333413
0.00335383
0.00334687
0.00331282
0.00325888
0.00319712
0.00314131
0.00310441
0.00309645
0.00312171
0.00317783
0.00325764
0.00335243
0.0034543
0.00355701
0.00365653
0.00370167
0.00370613
0.00372659
0.00375989
0.00379695
0.00383313
0.0032839
0.00327245
0.00328496
0.0033081
0.00332744
0.00333339
0.00332283
0.00329844
0.00326688
0.00323688
0.0032175
0.00321626
0.00323785
0.0032826
0.00334666
0.00342397
0.00350825
0.00347712
0.00343389
0.00341759
0.00342305
0.00344341
0.00347342
0.00350922
0.00354732
0.00330857
0.00328854
0.00328431
0.00329181
0.00330308
0.00331109
0.00331213
0.00330623
0.00329645
0.0032879
0.00328622
0.00329654
0.00332237
0.00336455
0.0034205
0.00343586
0.00333337
0.00325235
0.00320313
0.00318033
0.00317612
0.00318556
0.00320597
0.00323448
0.00326827
0.00332831
0.00331015
0.00329677
0.00329089
0.00329064
0.00329274
0.00329468
0.00329584
0.00329744
0.00330203
0.00331283
0.00333296
0.00336469
0.00340831
0.00346111
0.00330364
0.00317907
0.00309161
0.00303278
0.00299733
0.00298095
0.00297961
0.00299004
0.00300969
0.00303627
0.0033344
0.00332917
0.00331712
0.00330486
0.00329505
0.00328817
0.0032842
0.00328331
0.00328622
0.0032943
0.00330928
0.00333291
0.00336644
0.00340978
0.00345795
0.00325857
0.00310671
0.00300092
0.00292509
0.00287316
0.00284167
0.00282709
0.00282593
0.00283526
0.00285288
0.0033158
0.00333338
0.00333389
0.00332523
0.00331257
0.00329966
0.00328873
0.00328136
0.00327889
0.00328257
0.00329363
0.00331314
0.00334178
0.00337945
0.00342453
0.0033616
0.00316417
0.00301783
0.00291398
0.00284063
0.00278887
0.00275521
0.00273676
0.00273052
0.00273439
0.00326065
0.00330807
0.0033304
0.00333541
0.00332973
0.00331836
0.00330511
0.00329285
0.00328384
0.00327989
0.00328239
0.00329239
0.00331052
0.00333688
0.00337085
0.00341059
0.00341874
0.00321498
0.00305943
0.00294712
0.0028655
0.00280644
0.0027654
0.00273827
0.00272297
0.00315808
0.00323755
0.00328743
0.00331466
0.00332538
0.00332481
0.00331735
0.00330657
0.00329543
0.00328629
0.00328101
0.00328096
0.00328705
0.00329975
0.00331904
0.00334442
0.00337479
0.00340828
0.00342599
0.00325971
0.00312833
0.00303073
0.00295834
0.00290473
0.00286636
0.0029984
0.00310866
0.00318818
0.00324223
0.00327591
0.00329392
0.00330047
0.00329924
0.0032934
0.0032856
0.00327801
0.00327234
0.00326987
0.00327147
0.00327762
0.00328845
0.00330382
0.0033232
0.00334585
0.00337052
0.0033965
0.00342303
0.00335028
0.00325977
0.00319102
0.00277889
0.00291492
0.00302172
0.00310278
0.00316186
0.00320269
0.00322887
0.0032437
0.00325017
0.00325091
0.00324815
0.00324378
0.00323931
0.00323588
0.00323436
0.0032353
0.00323903
0.00324565
0.00325509
0.00326708
0.00328131
0.00329734
0.00331449
0.00333229
0.00335037
0.00250635
0.00265969
0.0027874
0.00289129
0.00297368
0.00303715
0.00308442
0.00311817
0.00314093
0.00315506
0.00316268
0.00316561
0.00316543
0.00316343
0.00316065
0.00315789
0.00315577
0.0031547
0.00315498
0.00315675
0.00316006
0.00316485
0.003171
0.00317833
0.00318665
0.00219953
0.00235867
0.00249705
0.00261502
0.00271373
0.00279465
0.00285954
0.0029103
0.0029489
0.00297725
0.00299713
0.00301019
0.00301789
0.00302149
0.00302208
0.00302055
0.00301764
0.00301393
0.00300989
0.00300587
0.00300214
0.00299886
0.00299616
0.0029941
0.00299275
0.00186188
0.00200106
0.00214482
0.00229091
0.00239402
0.0024818
0.00255533
0.00261575
0.00266436
0.00270252
0.00273157
0.00275282
0.00276748
0.00277666
0.00278134
0.0027824
0.00278056
0.00277648
0.00277068
0.00276359
0.0027556
0.00274699
0.00273799
0.00272882
0.0027197
0.00142913
0.0015553
0.00168618
0.00182475
0.00197469
0.00209048
0.00215784
0.00221393
0.00225966
0.00229596
0.0023238
0.00234414
0.0023579
0.00236596
0.00236914
0.00236817
0.00236373
0.00235641
0.00234673
0.00233515
0.00232205
0.00230777
0.00229261
0.00227682
0.00226069
0.00108724
0.00119161
0.00130257
0.00139535
0.00144306
0.00148328
0.001516
0.00154167
0.00156082
0.00157402
0.00158187
0.00158497
0.00158389
0.00157921
0.00157146
0.00156112
0.00154866
0.00153447
0.00151891
0.00150231
0.00148492
0.00146701
0.00144876
0.00143035
0.00141199
0.000273899
0.000279635
0.000284606
0.00028885
0.000292322
0.000295109
0.000297268
0.000298849
0.000299901
0.000300472
0.000300609
0.000300358
0.000299763
0.000298866
0.000297707
0.000296322
0.000294748
0.000293014
0.00029115
0.000289181
0.000287129
0.000285015
0.000282856
0.000280666
0.00027846
3.88042e-05
5.41481e-05
6.47488e-05
0.00013782
0.000125874
0.000242693
0.000236374
0.000338089
0.000433187
0.000448505
0.000546067
0.000721425
0.000693282
0.000856107
0.00109103
0.00102279
0.00116936
0.0013901
0.00128318
0.00147696
0.0016954
0.00158719
0.00177124
0.00197215
0.00190221
0.00206662
0.0022507
0.0022509
0.00239567
0.00256135
0.00264196
0.0027634
0.00290628
0.00306052
0.0031555
0.00327208
0.00346936
0.00353989
0.00362998
0.00380166
0.00385202
0.00391793
0.00400872
0.00404284
0.00408975
0.00409469
0.00411977
0.00415426
0.00406209
0.00408748
0.0041177
0.00386492
0.00389555
0.00392946
0.00358322
0.00361806
0.00365549
0.00330215
0.00333598
0.00337254
0.00306472
0.00309459
0.00312773
0.0028739
0.00289795
0.00292586
0.00274383
0.00275844
0.00277775
0.00271582
0.00271624
0.00272241
0.00283933
0.00282202
0.00281132
0.00314071
0.0031041
0.00307599
0.00336666
0.00338292
0.00339929
0.00319466
0.00320325
0.00321236
0.00299191
0.00299166
0.00299185
0.00271146
0.00270348
0.00269558
0.00224602
0.00223139
0.00221663
0.00139576
0.00137975
0.00136389
0.000276516
0.000274581
0.000272656
2.54784e-05
4.34813e-05
5.36197e-05
5.49723e-05
6.66154e-05
7.13804e-05
7.54896e-05
7.9119e-05
8.23793e-05
8.53438e-05
8.80644e-05
9.05799e-05
9.29208e-05
9.51123e-05
9.71753e-05
9.9128e-05
0.000100986
0.000102764
0.000104475
0.000106128
0.000107737
0.000109308
0.000110853
0.00011238
0.000113896
0.000115411
0.000116934
0.000118473
0.000120039
0.000121642
0.000123295
0.000125013
0.000126815
0.000128722
0.000130701
0.000132729
0.000134806
0.00013694
0.000139138
0.00014139
0.000143698
0.000146076
0.000148527
0.000151055
0.000153664
0.000156356
0.000159135
0.000162001
0.000164956
0.000167999
0.000171123
0.000174321
0.000177576
0.000180857
0.000184121
0.000187295
0.000190262
0.000192843
0.000194802
0.000196021
0.00019667
0.000196838
0.000196529
0.000195145
0.000192655
0.000189015
0.000183997
0.000177937
0.000171096
0.000163572
0.00015552
0.000146903
0.000138874
0.000130986
0.000122949
0.000114517
0.000105367
8.63051e-05
8.17556e-05
5.4911e-05
4.46463e-05
0.000127087
0.000147045
0.000166752
0.000191533
0.000219917
0.000250149
0.000281552
0.000313471
0.000345363
0.000376782
0.000407387
0.000436936
0.000465282
0.000492348
0.000518119
0.000542623
0.000565918
0.00058808
0.000609196
0.000629359
0.00064866
0.000667185
0.000685014
0.00070222
0.000718861
0.000734987
0.000750639
0.000765834
0.000780578
0.000794853
0.000808621
0.00082172
0.000834123
0.000846933
0.000860335
0.00087413
0.000888311
0.000902833
0.000917651
0.000932831
0.000948424
0.000964446
0.000980905
0.000997803
0.00101514
0.00103289
0.00105103
0.00106951
0.00108827
0.00110719
0.00112611
0.00114482
0.00116299
0.00118016
0.00119567
0.00120857
0.00121759
0.00122105
0.0012165
0.00120502
0.00118789
0.00116446
0.00113276
0.00109389
0.00104931
0.000999009
0.000946217
0.000891579
0.000834233
0.000775327
0.000711923
0.000619955
0.000518564
0.000419649
0.000331126
0.000258091
0.00020351
0.000162643
6.36989e-05
5.53519e-05
0.000189011
0.000240084
0.000292363
0.000349836
0.000415309
0.000485726
0.000558787
0.000632536
0.000705443
0.000776379
0.000844581
0.000909587
0.000971173
0.00102928
0.00108398
0.00113541
0.00118376
0.00122924
0.00127206
0.00131245
0.00135061
0.00138673
0.00142099
0.00145355
0.00148456
0.00151413
0.00154238
0.0015694
0.00159527
0.00162004
0.00164377
0.00166647
0.00168819
0.00170895
0.00173032
0.00175202
0.00177377
0.00179546
0.00181705
0.0018385
0.00185978
0.00188082
0.00190153
0.0019218
0.00194148
0.0019604
0.00197833
0.00199502
0.00201013
0.00202329
0.00203402
0.00204174
0.0020458
0.00204535
0.00203941
0.00202679
0.00200616
0.00197596
0.0018234
0.00163636
0.00148479
0.00136625
0.00127677
0.00121704
0.00118311
0.00117106
0.00119442
0.00123137
0.00115658
0.00108289
0.00100531
0.000902763
0.000774694
0.000632553
0.000491915
0.000368628
0.000273569
0.000202171
6.59072e-05
5.92414e-05
0.000236121
0.000331111
0.000442678
0.0005401
0.000647844
0.000761466
0.000877247
0.00099217
0.00110403
0.00121138
0.00131336
0.00140956
0.00149988
0.00158445
0.00166349
0.0017373
0.00180623
0.00187063
0.00193083
0.00198715
0.00203991
0.00208937
0.00213581
0.00217944
0.00222048
0.00225912
0.00229551
0.0023298
0.00236212
0.00239258
0.00242127
0.00244825
0.00247359
0.00249732
0.00251948
0.00254167
0.00256322
0.00258383
0.00260333
0.00262157
0.00263842
0.00265368
0.00266717
0.00267863
0.00268778
0.0026943
0.00269779
0.00269783
0.00269391
0.00268548
0.00267192
0.00265252
0.00262656
0.00259326
0.00255178
0.00250124
0.00244082
0.0023697
0.00227355
0.0020004
0.00177094
0.00158117
0.00142509
0.00130417
0.00121596
0.00115881
0.00113477
0.00114457
0.00117513
0.00110158
0.00103248
0.000949261
0.000834413
0.00069595
0.000548939
0.000412112
0.000300996
0.00021219
6.34208e-05
7.04672e-05
0.000283575
0.00041102
0.000570568
0.000747185
0.000905437
0.00105925
0.00121301
0.00136323
0.0015076
0.00164474
0.00177398
0.00189515
0.00200838
0.00211397
0.00221231
0.00230386
0.00238907
0.00246838
0.00254221
0.00261095
0.00267498
0.00273462
0.00279018
0.00284193
0.00289011
0.00293495
0.00297664
0.00301533
0.00305119
0.00308432
0.00311484
0.0031428
0.00316828
0.00319128
0.00321183
0.0032302
0.00324749
0.00326301
0.00327642
0.00328748
0.00329595
0.00330158
0.0033041
0.00330318
0.00329846
0.00328952
0.00327588
0.00325703
0.00323238
0.00320129
0.00316306
0.00311698
0.00306229
0.00299833
0.00292443
0.00283996
0.00274439
0.00263731
0.00251849
0.00238808
0.00224616
0.00202006
0.00177109
0.00156587
0.00139545
0.00125529
0.00114849
0.00106948
0.0010284
0.00100609
0.000926224
0.00085234
0.000761816
0.00064652
0.000521002
0.000399674
0.000294957
0.000203012
5.87043e-05
5.18637e-05
0.000326437
0.000482791
0.000683188
0.000917153
0.00117926
0.00136682
0.00155175
0.0017302
0.00190012
0.00206044
0.00221084
0.00235141
0.0024825
0.00260457
0.00271815
0.00282378
0.00292198
0.00301325
0.00309806
0.00317684
0.00324997
0.00331782
0.00338071
0.00343893
0.00349275
0.00354239
0.00358807
0.00362994
0.00366817
0.00370288
0.00373418
0.00376213
0.0037868
0.0038082
0.00382635
0.0038412
0.00385359
0.00386372
0.00387105
0.00387523
0.00387598
0.00387302
0.00386603
0.00385467
0.00383852
0.00381714
0.00379001
0.00375656
0.00371616
0.00366813
0.00361172
0.00354615
0.00347061
0.00338435
0.00328675
0.00317718
0.00305522
0.00292061
0.00277313
0.00261324
0.00244215
0.0022619
0.00207533
0.00188658
0.0017007
0.00152298
0.00135612
0.00117204
0.00100939
0.000898298
0.000816306
0.000713362
0.00062633
0.000535363
0.000443553
0.000352365
0.000265446
0.00017547
5.45365e-05
8.81852e-05
0.000269128
0.000537653
0.000791692
0.00110442
0.00146404
0.00167781
0.00188665
0.00208648
0.00227557
0.00245328
0.00261961
0.00277492
0.00291973
0.00305463
0.00318022
0.0032971
0.00340583
0.00350691
0.00360083
0.00368802
0.00376889
0.0038438
0.00391307
0.003977
0.00403586
0.00408988
0.00413927
0.0041842
0.00422484
0.00426131
0.00429371
0.00432214
0.00434666
0.0043673
0.00438408
0.00439701
0.00440604
0.00441241
0.00441561
0.00441523
0.00441097
0.00440252
0.00438957
0.00437176
0.0043487
0.00431992
0.0042849
0.00424305
0.00419371
0.00413616
0.00406962
0.00399323
0.00390615
0.00380745
0.00369623
0.00357176
0.00343324
0.00328085
0.00311418
0.00293315
0.00273886
0.00253312
0.00231878
0.00210004
0.00188222
0.00167212
0.00147193
0.00128685
0.00111732
0.000961644
0.000817108
0.000681516
0.000557012
0.000455481
0.000379143
0.000306926
0.000235808
0.00015453
5.19824e-05
0.000183667
0.000387144
0.000674696
0.000980136
0.00138934
0.00176394
0.00199714
0.0022231
0.00243807
0.00264071
0.00283082
0.00300869
0.00317489
0.00333006
0.00347488
0.00360996
0.00373593
0.00385332
0.00396265
0.00406439
0.00415896
0.00424675
0.00432811
0.00440337
0.0044728
0.00453668
0.00459523
0.00464865
0.00469713
0.00474082
0.00477985
0.00481435
0.00484441
0.0048701
0.00489147
0.00490856
0.00492139
0.00492996
0.00493437
0.00493566
0.00493328
0.00492686
0.0049161
0.0049007
0.00488033
0.00485461
0.0048231
0.00478529
0.00474061
0.00468839
0.00462788
0.00455827
0.00447864
0.00438806
0.0042855
0.00416996
0.00404048
0.00389606
0.0037361
0.00355998
0.00336761
0.00315947
0.0029368
0.00270173
0.00245814
0.0022104
0.00196473
0.00172614
0.00150061
0.00129302
0.00110653
0.000941873
0.000796717
0.000642925
0.000486473
0.000361751
0.000313061
0.000239285
0.000207618
0.000161196
0.000375387
0.000655274
0.00092167
0.00132453
0.00181762
0.00207154
0.00231849
0.00255526
0.00277957
0.0029907
0.0031888
0.00337442
0.00354823
0.00371093
0.00386321
0.0040057
0.00413897
0.00426354
0.00437989
0.00448846
0.00458966
0.00468384
0.00477133
0.00485244
0.00492744
0.00499658
0.00506007
0.00511813
0.00517092
0.0052186
0.00526131
0.00529917
0.00533228
0.00536072
0.00538456
0.00540383
0.00541858
0.00542878
0.0054344
0.00543619
0.00543438
0.00542859
0.00541852
0.00540391
0.00538448
0.00535989
0.00532976
0.00529362
0.00525093
0.00520107
0.00514332
0.00507687
0.00500078
0.00491408
0.00481567
0.00470444
0.00457922
0.00443887
0.00428232
0.00410867
0.00391734
0.00370825
0.00348189
0.00323963
0.00298391
0.00271821
0.00244679
0.0021741
0.00190532
0.00164862
0.00141165
0.00120183
0.0010234
0.000875956
0.000756044
0.000659857
0.000585702
0.000540886
0.000516987
0.000505174
0.000653132
0.00101163
0.00134101
0.00184675
0.00212424
0.00238858
0.00264203
0.00288325
0.00311124
0.00332589
0.00352767
0.00371724
0.00389532
0.00406263
0.0042198
0.00436742
0.00450602
0.00463606
0.00475799
0.00487218
0.004979
0.00507879
0.00517183
0.00525841
0.00533877
0.00541314
0.00548173
0.00554473
0.0056023
0.00565459
0.00570174
0.00574387
0.00578107
0.00581344
0.00584106
0.00586396
0.0058822
0.00589579
0.00590474
0.00590902
0.00590973
0.00590657
0.00589933
0.00588777
0.00587169
0.0058508
0.0058248
0.00579331
0.00575586
0.00571191
0.00566079
0.00560177
0.00553398
0.00545645
0.00536813
0.00526785
0.0051544
0.00502652
0.00488298
0.00472261
0.00454446
0.00434794
0.00413289
0.00389984
0.00365018
0.0033863
0.00311136
0.00282876
0.002542
0.0022559
0.00198011
0.00172381
0.00149463
0.00129859
0.00113957
0.00102021
0.000941789
0.000903696
0.000890739
0.000907408
0.0010107
0.00138069
0.00179642
0.00216618
0.0024487
0.00271527
0.00296848
0.00320841
0.00343504
0.00364879
0.00385031
0.00404033
0.00421957
0.00438869
0.00454825
0.00469878
0.00484072
0.0049745
0.00510047
0.00521898
0.00533033
0.0054348
0.00553266
0.00562414
0.00570947
0.00578884
0.00586243
0.00593042
0.00599296
0.00605018
0.00610221
0.00614916
0.00619113
0.0062282
0.00626045
0.00628793
0.0063107
0.00632879
0.00634221
0.00635096
0.00635534
0.00635609
0.00635296
0.00634579
0.00633443
0.0063187
0.00629838
0.00627318
0.00624275
0.00620666
0.00616436
0.00611522
0.0060585
0.00599335
0.0059188
0.00583379
0.00573716
0.0056277
0.00550415
0.00536529
0.00521001
0.00503742
0.00484692
0.00463844
0.00441254
0.00417067
0.00391513
0.00364875
0.00337394
0.00309698
0.00282435
0.00256335
0.00232119
0.00210485
0.00192122
0.00177718
0.00167712
0.00162221
0.00161558
0.00166675
0.00136749
0.0017248
0.00216225
0.00250803
0.00278767
0.0030496
0.00329691
0.00353069
0.00375169
0.00396065
0.00415837
0.00434561
0.00452303
0.00469123
0.0048507
0.00500186
0.00514511
0.00528078
0.00540916
0.00553053
0.00564513
0.0057532
0.00585495
0.00595056
0.00604023
0.00612411
0.00620236
0.00627511
0.0063425
0.00640464
0.00646165
0.00651361
0.00656061
0.00660273
0.00664004
0.0066726
0.00670045