/*--------------------------------*- C++ -*----------------------------------*\
| =========                 |                                                 |
| \\      /  F ield         | OpenFOAM: The Open Source CFD Toolbox           |
|  \\    /   O peration     | Version:  v2012                                 |
|   \\  /    A nd           | Website:  www.openfoam.com                      |
|    \\/     M anipulation  |                                                 |
\*---------------------------------------------------------------------------*/
FoamFile
{
    version     2.0;
    format      ascii;
    class       volScalarField;
    location    "582";
    object      omega;
}
// * * * * * * * * * * * * * * * * * * * * * * * * * * * * * * * * * * * * * //

dimensions      [0 0 -1 0 0 0 0];


internalField   nonuniform List<scalar> 
6598
(
533.208
190.087
165.604
162.825
164.065
164.065
162.825
165.604
190.087
533.208
406.086
167.194
138.269
133.34
133.417
133.417
133.34
138.269
167.194
406.086
327.928
145.496
118.314
112.507
111.766
111.766
112.507
118.314
145.496
327.928
276.067
127.351
103.054
97.0749
95.8613
95.8613
97.0749
103.053
127.351
276.067
239.485
112.633
91.0422
85.219
83.7698
83.7698
85.2189
91.0421
112.633
239.485
212.386
100.718
81.3864
75.8486
74.3049
74.3049
75.8485
81.3863
100.718
212.386
191.506
90.9928
73.4903
68.2726
66.7127
66.7127
68.2726
73.4902
90.9924
191.506
174.899
82.9623
66.9379
62.0325
60.4976
60.4976
62.0324
66.9376
82.9618
174.9
161.344
76.2487
61.4296
56.8119
55.3221
55.3221
56.8118
61.4293
76.2478
161.346
150.043
70.5677
56.7455
52.3861
50.9496
50.9495
52.3858
56.745
70.5665
150.045
140.452
65.7061
52.7207
48.5907
47.2095
47.2094
48.5903
52.7199
65.7043
140.455
132.193
61.5024
49.23
45.3031
43.9758
43.9756
45.3025
49.2287
61.4996
132.197
124.99
57.8333
46.1767
42.4301
41.1539
41.1536
42.4292
46.1747
57.8291
124.995
118.641
54.6036
43.4855
39.8995
38.6708
38.6703
39.8982
43.4826
54.5974
118.649
112.994
51.7389
41.097
37.6548
36.4699
36.4692
37.6527
41.0926
51.7297
113.005
107.931
49.1806
38.9638
35.6509
34.5064
34.5054
35.6479
38.9574
49.1671
107.947
103.36
46.8822
37.0477
33.8519
32.7443
32.743
33.8474
37.0381
46.8624
103.383
99.2076
44.8059
35.3179
32.2284
31.1548
31.1529
32.222
35.3038
44.778
99.2399
95.4151
42.9217
33.7491
30.7564
29.714
29.7115
30.7477
33.7292
42.8813
95.4608
91.9348
41.2053
32.3213
29.4173
28.4033
28.3998
29.4049
32.2929
41.1557
91.997
88.8073
39.6754
31.0483
28.2229
27.234
27.2289
28.2033
30.9857
39.2696
78.4045
85.9062
38.2699
29.8797
27.1267
26.1606
26.1527
27.0941
29.7561
37.4097
67.2514
83.2043
36.9747
28.8028
26.1159
25.1702
25.1582
26.0634
28.592
35.5505
58.3698
80.6787
35.7781
27.8079
25.1815
24.2537
24.236
25.1018
27.4897
33.5447
51.2946
78.3099
34.6705
26.8867
24.3153
23.4031
23.3791
24.2051
26.4108
31.499
45.6889
76.0806
33.6435
26.0319
23.5105
22.6117
22.5795
23.369
25.3464
29.6111
41.2944
73.9753
32.6895
25.2368
22.7605
21.8725
21.8299
22.5731
24.3486
27.9765
37.8428
71.9163
31.7743
24.4738
22.0394
21.1602
21.1039
21.7925
23.3899
26.5609
35.0394
69.9628
30.9244
23.7638
21.3664
20.4931
20.4205
21.0521
22.5005
25.3647
32.7646
68.1033
30.1363
23.1037
20.7383
19.8682
19.777
20.3522
21.6785
24.3239
30.7105
66.3273
29.4061
22.49
20.1517
19.2819
19.1705
19.6914
20.9176
23.3926
28.8604
64.625
28.7303
21.9202
19.6038
18.7316
18.5984
19.0676
20.2101
22.5365
27.1896
62.987
28.1069
21.3921
19.0925
18.2147
18.0583
18.4783
19.5466
21.7191
25.6715
61.4048
27.5348
20.9046
18.6161
17.7297
17.5486
17.9207
18.9183
20.9277
24.283
59.8698
27.0131
20.4569
18.1737
17.2754
17.0678
17.3922
18.3174
20.1548
23.0028
58.3738
26.5414
20.0491
17.7651
16.851
16.6148
16.8906
17.7387
19.3971
21.8134
56.9088
26.1197
19.682
17.3904
16.4565
16.1892
16.4144
17.179
18.6539
20.7005
55.4668
25.7481
19.3567
17.0507
16.0925
15.7911
15.9629
16.6373
17.9273
19.6541
54.04
25.4265
19.0751
16.7476
15.7603
15.4214
15.5366
16.1148
17.221
18.6676
52.6205
25.1545
18.8393
16.4834
15.4619
15.0818
15.1372
15.6147
16.541
17.7387
51.2005
24.9311
18.6519
16.261
15.2
14.7748
14.7674
15.1417
15.8947
16.8686
49.7722
24.7546
18.5154
16.0839
14.9779
14.5038
14.4311
14.7022
15.2909
16.0619
48.3274
24.623
18.4325
15.9561
14.7997
14.2727
14.1331
14.3029
14.7386
15.3261
46.8575
24.5324
18.4055
15.8816
14.67
14.0861
13.8783
13.9509
14.2468
14.6694
45.3535
24.4782
18.4361
15.8647
14.5934
13.949
13.672
13.6525
13.8228
14.0997
43.8055
24.4539
18.5253
15.9094
14.5749
13.8662
13.5194
13.413
13.4721
13.6227
42.2021
24.4521
18.6728
16.019
14.619
13.8426
13.4249
13.2367
13.1977
13.2404
40.5295
24.464
18.8768
16.196
14.7299
13.8826
13.3926
13.1261
13.0001
12.9514
38.7706
24.4789
19.1335
16.4411
14.9103
13.9896
13.4254
13.0828
12.878
12.7512
36.9022
24.4834
19.4357
16.7519
15.1608
14.1653
13.525
13.1071
12.8289
12.6335
34.8913
24.4591
19.7698
17.1202
15.4772
14.4079
13.6904
13.1975
12.8494
12.5917
32.6864
24.3714
20.1084
17.5269
15.8462
14.708
13.9149
13.3489
12.934
12.6191
30.1804
24.1325
20.386
17.9244
16.2333
15.0407
14.181
13.5488
13.0742
12.7107
27.1981
23.6402
20.5149
18.2322
16.5721
15.3562
14.4536
13.7749
13.2623
12.8725
23.6156
22.6497
20.3676
18.358
16.7875
15.5945
14.6907
14.0117
13.4962
13.0947
18.969
20.4573
19.5632
18.1129
16.781
15.704
14.8846
14.2554
13.762
13.366
14.2754
16.5226
17.5421
17.1404
16.376
15.6579
15.0344
14.5077
14.0666
13.6973
12.7049
11.1117
13.9594
15.1313
15.4243
15.3347
15.0881
14.7876
14.4821
14.1955
12.8918
9.50517
10.8405
12.9788
14.2906
15.045
15.4346
15.5804
15.5788
15.5154
13.5823
14.2713
17.4694
21.3068
24.7495
27.6231
29.5536
31.1293
32.4395
33.5022
33.726
20.8025
20.6866
20.7502
20.6417
20.2087
19.2572
18.3311
17.4559
16.6148
15.7961
15.0212
14.2913
13.6016
12.9392
12.3134
11.7354
11.1799
10.6272
10.0588
9.45315
8.78011
7.97375
6.91395
5.9391
43.7752
15.6638
9.70018
8.32481
7.78182
7.36508
6.86886
6.35749
5.94182
5.60419
5.32132
5.09909
4.93867
4.82942
4.76748
4.80471
4.95228
5.17986
5.46272
5.77985
6.10335
6.38493
6.56885
6.58671
9.07841
47.5846
21.2061
11.3386
8.3553
7.16425
6.3925
5.71761
5.02844
4.47615
4.05861
3.73672
3.50053
3.33443
3.22709
3.17182
3.17884
3.26572
3.43657
3.6972
4.05036
4.48785
4.97433
5.4621
5.94044
9.74852
47.7305
25.4081
14.458
9.89643
7.82273
6.52755
5.51275
4.67086
3.96244
3.47644
3.12063
2.8658
2.68078
2.55618
2.48776
2.47937
2.53977
2.67227
2.8873
3.19849
3.61469
4.12483
4.6911
5.34617
9.80237
46.0797
28.3881
17.0981
11.7768
8.92131
7.03748
5.63813
4.58213
3.81025
3.26528
2.86954
2.58638
2.36393
2.20112
2.10398
2.07532
2.13037
2.25434
2.45109
2.7339
3.11852
3.60677
4.17374
4.8907
9.52633
43.7033
29.8308
19.5033
13.533
10.0057
7.64759
5.92123
4.67057
3.81213
3.23861
2.84233
2.53646
2.27286
2.05569
1.91399
1.86279
1.91519
2.04061
2.22997
2.49408
2.85036
3.30599
3.84554
4.57621
9.08997
40.9673
30.5135
21.3259
15.1403
11.1064
8.27951
6.22215
4.77901
3.84963
3.2872
2.92266
2.63427
2.36332
2.12085
1.94607
1.86672
1.89409
2.00765
2.18562
2.43181
2.75889
3.17513
3.68414
4.45191
8.63807
38.2156
30.5776
22.5102
16.4907
12.1602
8.95796
6.58767
4.95435
3.94931
3.3965
3.08311
2.84887
2.61001
2.36824
2.16769
2.05349
2.04878
2.14462
2.30818
2.5388
2.84759
3.25347
3.79138
4.58283
8.26928
35.6668
30.1525
23.1841
17.555
13.1349
9.66501
7.01271
5.19418
4.11098
3.56367
3.30751
3.15657
3.0018
2.81838
2.63273
2.49492
2.45647
2.53885
2.70441
2.95764
3.32259
3.85216
4.66819
6.0488
8.89662
33.3369
29.3287
23.5115
18.3369
13.954
10.3155
7.4547
5.46891
4.31307
3.76243
3.55462
3.49501
3.46672
3.42327
3.36423
3.31725
3.32524
3.44699
3.68451
4.06263
4.62789
5.45659
6.6378
8.12368
9.45925
31.2203
28.2973
23.52
18.7793
14.5596
10.8728
7.87339
5.75993
4.53402
3.96459
3.77813
3.7801
3.85944
3.96715
4.08623
4.21815
4.37681
4.59019
4.90985
5.35198
5.91742
6.57317
7.22252
7.69895
7.81774
29.2971
27.1758
23.268
18.9742
14.9883
11.3429
8.26914
6.05342
4.7522
4.14088
3.93938
3.94879
4.05891
4.22263
4.41956
4.63765
4.86749
5.10086
5.36849
5.66705
5.97497
6.25289
6.4479
6.51324
6.34072
27.5521
26.027
22.8185
18.9995
15.2805
11.7413
8.64493
6.34369
4.95577
4.27477
4.02356
3.9976
4.0758
4.20521
4.36594
4.54489
4.73132
4.92342
5.11668
5.29811
5.44973
5.54672
5.56022
5.45903
5.1895
25.9623
24.8839
22.2379
18.9086
15.4522
12.0761
9.01017
6.63963
5.15304
4.3752
4.04635
3.9675
4.00181
4.08521
4.19325
4.31501
4.4421
4.57137
4.68884
4.78498
4.85165
4.86276
4.78397
4.60117
4.29671
24.5043
23.764
21.5871
18.7222
15.5438
12.3772
9.38639
6.96035
5.35493
4.46701
4.04376
3.89629
3.88397
3.92808
3.99579
4.07311
4.15658
4.23401
4.29531
4.33036
4.32589
4.26428
4.13021
3.91762
3.63537
23.1577
22.6784
20.901
18.4512
15.5907
12.6436
9.79132
7.33526
5.59648
4.57811
4.04735
3.80944
3.73687
3.74049
3.77344
3.81834
3.86398
3.89979
3.9165
3.90428
3.85287
3.75403
3.60435
3.40834
3.18167
21.9049
21.6304
20.197
18.1014
15.6146
12.8977
10.2119
7.79762
5.94326
4.76025
4.10441
3.76009
3.60318
3.55071
3.54676
3.56051
3.57484
3.57928
3.56585
3.52753
3.45867
3.35646
3.22269
3.06471
2.89387
20.7315
20.6188
19.4861
17.7106
15.5724
13.1437
10.6485
8.32183
6.41928
5.09136
4.28193
3.82259
3.57112
3.44615
3.38976
3.36437
3.34836
3.32903
3.2983
3.25089
3.18336
3.095
2.9882
2.86816
2.74172
19.6262
19.6398
18.7679
17.2852
15.4468
13.3787
11.0965
8.90093
6.99956
5.56452
4.61269
4.03353
3.68367
3.47811
3.36144
3.29272
3.24614
3.20658
3.16503
3.11578
3.05572
2.98394
2.90164
2.81168
2.71804
18.5822
18.6902
18.0445
16.8331
15.2658
13.4908
11.5563
9.52271
7.67937
6.18561
5.11054
4.40508
3.96352
3.68277
3.50206
3.38511
3.30497
3.24417
3.19217
3.14184
3.08934
3.03258
2.97073
2.90473
2.83667
17.597
17.7688
17.3159
16.3528
15.0404
13.5202
11.8768
10.155
8.42677
6.9371
5.7761
4.95416
4.40619
4.04957
3.81508
3.6558
3.54384
3.46157
3.39759
3.34326
3.29315
3.24478
3.19614
3.14626
3.09489
16.6733
16.8782
16.5828
15.8419
14.7722
13.4886
12.0863
10.6262
9.15799
7.78097
6.58115
5.67531
5.02715
4.57973
4.27736
4.07229
3.93036
3.82836
3.75088
3.68828
3.63407
3.58422
3.53681
3.49067
3.44468
15.818
16.0264
15.8506
15.3015
14.4543
13.3986
12.2175
10.9798
9.73486
8.53727
7.44866
6.53406
5.81467
5.27663
4.89866
4.63291
4.44445
4.30822
4.20654
4.12713
4.06183
4.00559
3.95522
3.90865
3.8652
15.042
15.2266
15.1305
14.7373
14.087
13.2438
12.2743
11.238
10.1878
9.16795
8.21709
7.3748
6.66656
6.09935
5.66451
5.3391
5.09794
4.91841
4.78266
4.67679
4.59163
4.5217
4.46305
4.41269
4.36849
14.357
14.4964
14.4412
14.1631
13.6764
13.0214
12.2477
11.4041
10.5338
9.67641
8.86546
8.12621
7.4776
6.93029
6.48403
6.12904
5.85094
5.63306
5.46282
5.32946
5.2237
5.13878
5.07004
5.01402
4.96726
13.7732
13.8538
13.8063
13.6013
13.2387
12.7396
12.1371
11.4679
10.7673
10.0668
9.39256
8.7653
8.19947
7.70417
7.28267
6.93069
6.64162
6.40794
6.21999
6.07031
5.9516
5.85711
5.78186
5.72107
5.67119
13.2963
13.3136
13.2501
13.081
12.8007
12.4188
11.9552
11.435
10.8842
10.3265
9.7828
9.26997
8.79999
8.37937
8.01102
7.69359
7.42603
7.20552
7.02599
6.88064
6.76322
6.66811
6.59087
6.52785
6.47593
12.9264
12.8834
12.7911
12.6307
12.3961
12.0919
11.7298
11.3256
10.8966
10.46
10.0315
9.62402
9.24709
8.90625
8.60551
8.345
8.12404
7.94039
7.79029
7.66915
7.57216
7.4943
7.43096
7.37925
7.33672
12.6583
12.5623
12.4381
12.2713
12.0569
11.7975
11.5001
11.1751
10.8345
10.4902
10.1534
9.83313
9.53656
9.26795
9.03115
8.82885
8.65815
8.51723
8.40381
8.31473
8.24628
8.19462
8.15619
8.12791
8.10722
12.4834
12.3425
12.1894
12.0118
11.8047
11.568
11.3068
11.0291
10.7439
10.4602
10.1858
9.92743
9.68991
9.47629
9.28888
9.13031
9
8.8953
8.81397
8.75346
8.71107
8.68381
8.66862
8.6627
8.66347
12.3918
12.2136
12.038
11.8519
11.647
11.4223
11.181
10.9293
10.6747
10.4243
10.1847
9.96122
9.75753
9.57589
9.41756
9.28315
9.17297
9.08636
9.0211
8.97463
8.94458
8.92856
8.92413
8.929
8.94083
12.376
12.1698
11.9778
11.7848
11.582
11.366
11.1381
10.9024
10.6647
10.431
10.2071
9.99766
9.80623
9.63493
9.48481
9.35608
9.24839
9.16074
9.09148
9.0393
9.00234
8.9784
8.96548
8.96174
8.96533
12.4378
12.2092
12.0031
11.8046
11.6038
11.3959
11.1796
10.9569
10.7315
10.5082
10.2915
10.086
9.89474
9.72028
9.56388
9.42605
9.30662
9.20483
9.11947
9.04907
8.99177
8.94576
8.90965
8.88213
8.86175
12.5759
12.3285
12.1097
11.9052
11.7052
11.5034
11.297
11.086
10.8721
10.6584
10.4483
10.2451
10.0519
9.87101
9.70393
9.5516
9.41432
9.2919
9.18371
9.08879
9.00598
8.93394
8.87125
8.81658
8.7688
12.7839
12.5222
12.2919
12.0803
11.878
11.6787
11.4788
11.2768
11.073
10.8688
10.6662
10.4677
10.2754
10.0913
9.91694
9.7533
9.60104
9.46037
9.33122
9.21321
9.10576
9.0081
8.91933
8.83858
8.76517
13.0523
12.7839
12.5461
12.3285
12.123
11.9237
11.7268
11.5302
11.3334
11.1367
10.9412
10.7483
10.5595
10.3761
10.1995
10.0305
9.86991
9.71803
9.57506
9.44097
9.31555
9.19845
9.08925
8.98745
8.89282
13.3967
13.134
12.8976
12.679
12.4723
12.2725
12.0765
11.8824
11.6896
11.498
11.3081
11.1208
10.9368
10.7573
10.5831
10.4149
10.2532
10.0985
9.95103
9.81078
9.67773
9.55172
9.43249
9.31978
9.21355
13.9451
13.7146
13.4996
13.2956
13.0984
12.9061
12.7173
12.5314
12.3481
12.1674
11.9895
11.815
11.6444
11.4783
11.3173
11.1617
11.012
10.8685
10.7311
10.5999
10.4749
10.3558
10.2424
10.1344
10.0319
15.4326
15.3403
15.2468
15.1523
15.051
14.9459
14.8387
14.7301
14.6206
14.5108
14.401
14.2918
14.1837
14.0771
13.9725
13.8701
13.7701
13.6727
13.5778
13.4854
13.3955
13.3079
13.2223
13.1387
13.0569
34.3426
35.0618
35.6851
36.2173
36.6526
37.0021
37.2727
37.4709
37.6028
37.6744
37.6916
37.6601
37.5856
37.4731
37.3277
37.1541
36.9567
36.7393
36.5056
36.2587
36.0014
35.7364
35.4657
35.1911
34.9145
7.18266
11.191
15.879
11.6977
11.9331
11.0003
9.67821
8.96458
7.92325
7.50392
6.82997
5.8769
5.91018
5.287
4.53253
4.73778
4.21659
3.67755
3.89361
3.50175
3.13445
3.32049
3.041
2.78916
2.95019
2.75116
2.57365
2.7259
2.58199
2.45317
2.61918
2.51327
2.4175
2.62785
2.54889
2.4767
2.77138
2.7132
2.65898
3.04577
3.00105
2.9581
3.40115
3.36128
3.32286
3.82597
3.79024
3.75584
4.33106
4.298
4.26665
4.92955
4.89719
4.86726
5.63206
5.59897
5.56895
6.43547
6.40108
6.37
7.30391
7.27584
7.25035
8.09324
8.08252
8.07355
8.6683
8.67554
8.68414
8.956
8.97392
8.99375
8.97366
8.98565
9.00055
8.84856
8.8393
8.83318
8.73105
8.69739
8.66682
8.70511
8.64971
8.59783
8.81402
8.74013
8.67001
9.12415
9.03939
8.95822
9.94522
9.86231
9.78232
12.9862
12.9166
12.8476
34.6707
34.4281
34.1867
4.34992
5.84755
7.211
8.18202
8.9587
9.59951
10.1521
10.6402
11.0787
11.4774
11.8432
12.1815
12.4963
12.7911
13.0685
13.3311
13.581
13.8201
14.0501
14.2725
14.4888
14.7002
14.9079
15.1132
15.3172
15.5209
15.7257
15.9327
16.1432
16.3588
16.5811
16.8122
17.0545
17.311
17.5771
17.8498
18.1292
18.4162
18.7117
19.0146
19.325
19.6448
19.9745
20.3144
20.6652
21.0273
21.4009
21.7864
22.1838
22.593
23.0132
23.4433
23.8809
24.3223
24.7612
25.188
25.587
25.9342
26.1976
26.3616
26.4488
26.4714
26.4298
26.2437
25.9089
25.4194
24.7446
23.9296
23.0095
21.9978
20.9149
19.756
18.6763
17.6155
16.5346
15.4006
14.1702
12.7556
10.9948
9.3749
9.43354
6.16863
6.72677
6.99353
7.07133
7.03599
6.93864
6.81844
6.69484
6.57808
6.4729
6.38104
6.3026
6.23684
6.18266
6.13882
6.10411
6.07745
6.05784
6.04447
6.03664
6.03381
6.03555
6.04157
6.05167
6.06577
6.0839
6.10619
6.1329
6.16441
6.20125
6.24413
6.29449
6.3531
6.4143
6.47643
6.54034
6.60613
6.67402
6.74407
6.81659
6.89165
6.96946
7.05022
7.13417
7.22152
7.31252
7.40745
7.50656
7.61013
7.71843
7.83171
7.95018
8.07397
8.20307
8.33726
8.47618
8.61979
8.769
8.92247
9.06144
9.17297
9.25357
9.29471
9.26934
9.19169
9.05635
8.879
8.67848
8.48121
8.3031
8.18248
8.33335
8.63115
9.00353
9.38951
9.70988
9.86263
9.75088
13.4592
11.6956
6.22826
6.16465
6.06891
5.88214
5.64456
5.39761
5.16759
4.96483
4.79192
4.6474
4.52815
4.4306
4.3513
4.28719
4.23569
4.19465
4.16233
4.13735
4.11857
4.10514
4.09636
4.0917
4.09077
4.09327
4.099
4.10784
4.11971
4.13463
4.15262
4.17377
4.19821
4.22609
4.25755
4.29272
4.32923
4.36741
4.40769
4.4503
4.49553
4.54361
4.59481
4.64943
4.70781
4.77033
4.8374
4.90948
4.98706
5.07067
5.16087
5.25826
5.36345
5.47704
5.59961
5.73162
5.87341
6.02512
6.18665
6.3576
6.53616
6.7215
6.90077
7.06027
7.18434
7.25414
7.25539
7.16951
7.00742
6.7865
6.52963
6.2826
6.09259
6.06095
6.19699
6.49802
6.94856
7.49584
8.04161
8.54532
13.9257
13.3995
6.15991
5.6739
5.37313
5.06362
4.75803
4.47952
4.24042
4.0421
3.881
3.75174
3.64884
3.56734
3.50306
3.45261
3.41328
3.38294
3.35993
3.34297
3.33105
3.3234
3.31942
3.31868
3.32083
3.32562
3.33287
3.34247
3.35435
3.36848
3.38488
3.40357
3.42463
3.44815
3.47423
3.50303
3.53471
3.56804
3.60365
3.64186
3.68297
3.72726
3.77505
3.82669
3.88258
3.94313
4.00883
4.08017
4.15771
4.24204
4.3338
4.43366
4.54229
4.6604
4.78865
4.92765
5.07784
5.23941
5.4122
5.59517
5.78604
5.98445
6.18576
6.37932
6.55138
6.68397
6.75855
6.75463
6.65143
6.43398
6.09712
5.72024
5.37649
5.17742
5.17382
5.36058
5.73452
6.2694
6.88405
7.59163
13.4004
14.8893
6.07101
5.27324
4.83818
4.46722
4.14297
3.86952
3.64672
3.46971
3.3311
3.22349
3.14042
3.07663
3.02795
2.99111
2.96362
2.94357
2.92949
2.92027
2.91506
2.91322
2.91427
2.91784
2.92367
2.93155
2.94137
2.95304
2.96652
2.9818
2.99891
3.01791
3.03886
3.06188
3.08709
3.11465
3.14475
3.17743
3.21227
3.24972
3.29011
3.33376
3.381
3.43219
3.48772
3.54802
3.61356
3.68485
3.76245
3.84694
3.93898
4.03922
4.14837
4.26715
4.39631
4.53655
4.68846
4.85239
5.02839
5.21579
5.41301
5.61751
5.82701
6.03655
6.23794
6.4184
6.56237
6.64857
6.64605
6.521
6.24114
5.81896
5.3203
4.88376
4.70994
4.80108
5.10626
5.58994
6.18573
7.00646
12.4038
16.5835
5.96728
4.93301
4.40568
4.00388
3.68318
3.42906
3.22977
3.07674
2.96072
2.87339
2.80813
2.75978
2.72443
2.6991
2.68156
2.67014
2.66356
2.6609
2.66142
2.66461
2.67007
2.6775
2.68671
2.69754
2.70991
2.72377
2.7391
2.75592
2.77428
2.79424
2.81589
2.83935
2.86476
2.89227
2.92206
2.95436
2.98906
3.02623
3.06624
3.10942
3.15609
3.2066
3.26133
3.32069
3.38516
3.45521
3.53139
3.61429
3.70454
3.80283
3.90988
4.02644
4.15332
4.29131
4.44118
4.60374
4.7795
4.96881
5.17091
5.38419
5.60652
5.83418
6.06262
6.28559
6.49404
6.67484
6.80316
6.84682
6.7539
6.47626
6.00742
5.41883
4.89847
4.77876
4.95241
5.35535
5.94008
6.97064
11.5232
18.6331
6.09247
4.6282
4.03013
3.61924
3.31724
3.08919
2.91583
2.78661
2.69153
2.62224
2.57236
2.53711
2.51294
2.49721
2.48796
2.48372
2.48343
2.48627
2.49164
2.49912
2.50836
2.51915
2.53132
2.54477
2.55944
2.5753
2.59236
2.61065
2.63024
2.65119
2.67361
2.69761
2.72333
2.75092
2.78057
2.81247
2.84683
2.88353
2.92289
2.96522
3.01085
3.06012
3.11339
3.17107
3.23358
3.30142
3.3751
3.45521
3.54238
3.6373
3.74073
3.8535
3.97651
4.11043
4.25611
4.41496
4.58737
4.77635
4.98117
5.20002
5.4329
5.67825
5.93369
6.19676
6.46452
6.73617
6.98942
7.22156
7.39791
7.46556
7.36106
7.03264
6.47357
5.82623
5.60865
5.84105
6.38119
7.39247
10.9835
12.9218
5.62067
4.24607
3.65653
3.27324
3.00588
2.80887
2.66311
2.55734
2.48176
2.42867
2.39227
2.36834
2.35374
2.34618
2.34397
2.34585
2.35092
2.35848
2.36803
2.37921
2.39175
2.40547
2.42024
2.43599
2.45269
2.47032
2.4889
2.50849
2.52914
2.55093
2.57398
2.59838
2.62429
2.65186
2.68124
2.71263
2.74624
2.78227
2.8207
2.86186
2.90609
2.95371
3.00506
3.06054
3.12056
3.18559
3.25613
3.33273
3.41603
3.5067
3.6055
3.71327
3.83092
3.95947
4.10008
4.25404
4.4223
4.60656
4.80755
5.02611
5.26288
5.51783
5.79027
6.08103
6.38768
6.71433
7.06113
7.43306
7.83018
8.23454
8.61269
8.90739
9.04768
8.94845
8.56792
8.28536
8.42822
8.73758
10.4163
8.75981
4.8653
3.80602
3.29263
2.96929
2.74385
2.57905
2.46
2.37564
2.31716
2.27785
2.25272
2.23813
2.23138
2.23052
2.23409
2.24101
2.25051
2.26199
2.27503
2.28933
2.30465
2.32085
2.33784
2.35555
2.37397
2.39309
2.41295
2.4336
2.45511
2.47755
2.50102
2.52566
2.55158
2.57893
2.60789
2.63863
2.67135
2.70629
2.74354
2.78328
2.82583
2.87151
2.92064
2.97359
3.03075
3.09255
3.15948
3.23205
3.31086
3.39653
3.48979
3.59144
3.70236
3.82357
3.9562
4.1015
4.26082
4.43565
4.62741
4.83769
5.06799
5.3196
5.59349
5.89014
6.21005
6.55594
6.93378
7.35511
7.84082
8.39746
9.02677
9.7301
10.5031
11.3339
12.2111
13.1188
14.2127
15.707
17.6732
6.23749
4.14681
3.37668
2.97132
2.71092
2.52575
2.39227
2.29739
2.23157
2.18748
2.15954
2.14358
2.13652
2.1361
2.14063
2.14887
2.15989
2.17301
2.18772
2.20365
2.22055
2.23821
2.25651
2.27538
2.29475
2.31463
2.33503
2.35596
2.3775
2.3997
2.42264
2.44643
2.47118
2.49702
2.52408
2.55253
2.58256
2.61434
2.6481
2.68407
2.72232
2.76314
2.80682
2.85368
2.90405
2.95829
3.01681
3.08003
3.14843
3.22254
3.30291
3.39019
3.48508
3.58836
3.70092
3.82376
3.95799
4.10487
4.26575
4.44212
4.63565
4.84809
5.08122
5.3367
5.61598
5.92044
6.25215
6.61537
7.01812
7.47183
7.98018
8.54828
9.18457
9.89542
10.6749
11.5109
12.3759
13.2242
14.073
14.8546
4.70506
3.55952
3.0167
2.70583
2.49804
2.34976
2.24355
2.16896
2.11835
2.08585
2.06693
2.05818
2.05703
2.06156
2.07033
2.08226
2.09654
2.11258
2.12992
2.14823
2.16729
2.18691
2.20699
2.22745
2.24826
2.26941
2.2909
2.31278
2.33508
2.35789
2.38127
2.40532
2.43015
2.45588
2.48265
2.51062
2.53996
2.57085
2.60351
2.63816
2.675
2.71417
2.75597
2.80068
2.84861
2.90008
2.95546
3.01512
3.07948
3.14899
3.22414
3.30544
3.39348
3.48889
3.59238
3.70471
3.82675
3.95947
4.10394
4.26134
4.43299
4.62035
4.82502
5.04864
5.29287
5.55933
5.84977
6.1667
6.51604
6.89909
7.31542
7.76418
8.24341
8.74884
9.27655
9.81815
10.358
10.8799
11.3224
11.5699
3.77479
3.10966
2.73033
2.49367
2.3301
2.2125
2.12846
2.07007
2.03142
2.0079
1.9959
1.99264
1.99597
2.00426
2.01628
2.03106
2.0479
2.06625
2.08571
2.10597
2.12682
2.14809
2.16968
2.19153
2.21359
2.23585
2.25833
2.28106
2.30408
2.32745
2.35125
2.37557
2.40051
2.42618
2.45273
2.48031
2.50907
2.5392
2.57089
2.60438
2.6399
2.6776
2.71771
2.76049
2.80623
2.8552
2.90773
2.96415
3.02481
3.09008
3.16037
3.23608
3.31766
3.40558
3.50035
3.60251
3.71263
3.83136
3.95937
4.0974
4.24626
4.40683
4.58006
4.76695
4.96851
5.18574
5.4196
5.67184
5.9429
6.23249
6.53992
6.86304
7.19779
7.53755
7.87301
8.19282
8.47983
8.71029
8.81571
8.72438
3.19188
2.77801
2.50968
2.33005
2.20241
2.10949
2.04299
1.99721
1.96774
1.95101
1.94418
1.94498
1.95162
1.9627
1.97713
1.99408
2.01289
2.03306
2.05421
2.07605
2.09838
2.12104
2.14393
2.16698
2.19014
2.21341
2.23679
2.26032
2.28402
2.30795
2.33219
2.35681
2.38192
2.40763
2.43406
2.46137
2.48969
2.51922
2.55014
2.58267
2.61702
2.65345
2.69211
2.73325
2.7771
2.82391
2.87396
2.92754
2.98494
3.04646
3.11243
3.18315
3.25896
3.34017
3.42713
3.52015
3.61956
3.72571
3.8389
3.95948
4.08775
4.22403
4.36861
4.5217
4.68347
4.85393
5.03306
5.22041
5.41508
5.61587
5.82087
6.0274
6.23137
6.42692
6.60343
6.75109
6.85939
6.91731
6.87167
6.69601
2.81558
2.5409
2.34653
2.20959
2.11004
2.03682
1.98417
1.9482
1.92574
1.91413
1.91112
1.91489
1.92393
1.93704
1.95326
1.97183
1.99214
2.01372
2.0362
2.05932
2.08285
2.10666
2.13064
2.15471
2.17884
2.203
2.2272
2.25145
2.2758
2.30029
2.32498
2.34995
2.37529
2.40111
2.42754
2.45469
2.48273
2.51183
2.54217
2.57394
2.60738
2.64271
2.68015
2.71991
2.76217
2.80717
2.85513
2.90629
2.9609
3.01921
3.08146
3.14788
3.21871
3.29415
3.3744
3.45961
3.54992
3.64543
3.74619
3.85223
3.96349
4.07988
4.2012
4.32716
4.45731
4.59102
4.72754
4.8656
5.0038
5.14041
5.27324
5.39948
5.51546
5.61461
5.68967
5.73411
5.74518
5.72024
5.63947
5.49132
2.57069
2.37836
2.23388
2.12781
2.0498
1.9923
1.95079
1.92265
1.90571
1.89803
1.89792
1.9039
1.91472
1.92933
1.94688
1.96666
1.98811
2.01075
2.03425
2.05832
2.08277
2.10746
2.13228
2.15716
2.18206
2.20694
2.23182
2.25669
2.2816
2.30658
2.33169
2.35699
2.38259
2.40856
2.43503
2.46213
2.49
2.51881
2.54872
2.57993
2.61265
2.64711
2.68353
2.72214
2.7631
2.8066
2.85282
2.90196
2.95423
3.00982
3.06891
3.13169
3.19831
3.26889
3.34351
3.42223
3.50504
3.59187
3.68261
3.77706
3.87497
3.97598
4.07964
4.18538
4.29246
4.40003
4.50683
4.61148
4.71238
4.80773
4.89544
4.97307
5.03709
5.08205
5.10464
5.10267
5.07521
5.02204
4.94324
4.83373
2.41748
2.27698
2.16693
2.0836
2.02189
1.97678
1.94445
1.92283
1.91047
1.90605
1.9083
1.91605
1.92826
1.94404
1.9626
1.98329
2.00555
2.02893
2.05307
2.07771
2.10268
2.12786
2.15315
2.17849
2.20383
2.22914
2.25442
2.27968
2.30494
2.33023
2.35561
2.38114
2.4069
2.43297
2.45947
2.48652
2.51426
2.54284
2.57243
2.60321
2.63537
2.66913
2.7047
2.74236
2.78226
2.82452
2.8693
2.91676
2.96706
3.02036
3.07679
3.13649
3.19955
3.26604
3.33597
3.40932
3.48599
3.56583
3.64859
3.73397
3.8216
3.911
4.00163
4.09283
4.18385
4.27368
4.36099
4.44436
4.52225
4.59307
4.65509
4.70641
4.74381
4.76445
4.7663
4.74859
4.71178
4.65715
4.58629
4.50059
2.33759
2.23176
2.14647
2.08044
2.03119
1.99585
1.97117
1.95516
1.94685
1.94535
1.94971
1.95903
1.97245
1.98917
2.00849
2.02979
2.05253
2.07623
2.10048
2.12504
2.14982
2.17479
2.1999
2.22508
2.25027
2.27545
2.30063
2.3258
2.35098
2.37621
2.40153
2.42698
2.45265
2.47861
2.50496
2.53183
2.55935
2.58766
2.61693
2.64731
2.67901
2.71219
2.74708
2.78391
2.82289
2.86413
2.90771
2.95375
3.00238
3.05371
3.10785
3.16489
3.22489
3.28787
3.35382
3.42265
3.49424
3.56834
3.64467
3.72288
3.80253
3.88312
3.9641
4.0449
4.12491
4.20305
4.278
4.34842
4.41301
4.47042
4.51936
4.55833
4.58508
4.59747
4.5941
4.57474
4.54035
4.49285
4.43466
4.3681
2.3298
2.2485
2.18174
2.12931
2.09007
2.06229
2.04375
2.03257
2.02798
2.02924
2.03563
2.04641
2.06085
2.07825
2.09798
2.11946
2.14214
2.16546
2.18885
2.21203
2.23525
2.25868
2.28241
2.3063
2.33027
2.3543
2.37842
2.40264
2.42697
2.45142
2.47603
2.50083
2.52588
2.55126
2.57707
2.60343
2.63045
2.65829
2.68708
2.71698
2.74817
2.7808
2.81507
2.85116
2.88935
2.92969
2.97221
3.01701
3.06416
3.11373
3.16581
3.22045
3.27768
3.33751
3.3999
3.46478
3.53197
3.60118
3.67212
3.74442
3.81764
3.89128
3.96481
4.03805
4.11045
4.18085
4.24803
4.31084
4.36816
4.41898
4.46237
4.49711
4.52147
4.53361
4.53233
4.51739
4.48969
4.45119
4.40452
4.35217
2.40938
2.34653
2.29432
2.25294
2.22189
2.20008
2.18604
2.1789
2.17768
2.18156
2.18981
2.20175
2.21674
2.23416
2.25342
2.27396
2.29526
2.31678
2.33735
2.35625
2.37503
2.39432
2.41463
2.43529
2.45614
2.4772
2.49861
2.52043
2.54257
2.56502
2.5878
2.61094
2.63447
2.65846
2.68301
2.70822
2.73422
2.76114
2.7891
2.81826
2.84875
2.88071
2.91431
2.94968
2.9871
3.02654
3.06804
3.11161
3.1573
3.20515
3.2552
3.30748
3.36201
3.41877
3.47773
3.53884
3.60203
3.66677
3.73286
3.79998
3.86771
3.93551
4.00311
4.07066
4.1375
4.20253
4.26469
4.32298
4.37651
4.42452
4.46637
4.50098
4.52681
4.54229
4.5462
4.53806
4.51836
4.48874
4.45179
4.41004
2.607
2.55768
2.51579
2.48178
2.45556
2.4364
2.42413
2.41837
2.41793
2.4219
2.42955
2.44024
2.45346
2.46861
2.48513
2.50251
2.52031
2.53793
2.55425
2.56913
2.58358
2.59798
2.61257
2.62715
2.64185
2.657
2.67313
2.69045
2.70847
2.72709
2.74638
2.76636
2.78701
2.80839
2.83056
2.85366
2.87779
2.90308
2.92963
2.95756
2.98698
3.018
3.05072
3.08528
3.1218
3.16024
3.20056
3.24277
3.28686
3.33285
3.38074
3.43054
3.48225
3.53585
3.59128
3.64848
3.70731
3.76754
3.82893
3.89119
3.95396
4.01675
4.07977
4.14286
4.20534
4.26633
4.32489
4.38029
4.43189
4.47899
4.52092
4.55672
4.58518
4.60491
4.61466
4.61363
4.60179
4.58025
4.55136
4.51772
2.91492
2.8723
2.8344
2.80204
2.77577
2.75538
2.74136
2.73289
2.72918
2.72946
2.73307
2.73943
2.74809
2.75857
2.77033
2.78273
2.79553
2.80834
2.82118
2.83458
2.84763
2.85989
2.87094
2.88137
2.89146
2.9015
2.91188
2.92287
2.93447
2.94689
2.96061
2.97565
2.99178
3.00896
3.02733
3.04708
3.06829
3.09103
3.1154
3.14146
3.16929
3.19893
3.23045
3.26394
3.2993
3.33642
3.37526
3.41576
3.4579
3.50168
3.54707
3.59407
3.64267
3.69284
3.74455
3.79772
3.85226
3.90801
3.96478
4.02235
4.08049
4.13893
4.19782
4.25702
4.31604
4.37387
4.42952
4.4826
4.53252
4.57864
4.62033
4.65687
4.68725
4.71029
4.72486
4.73001
4.72518
4.71076
4.68866
4.66141
3.28362
3.24432
3.20838
3.17643
3.14964
3.12839
3.11249
3.10131
3.09421
3.09058
3.08982
3.09143
3.09504
3.10026
3.10668
3.11381
3.12155
3.12981
3.13897
3.1489
3.15915
3.16938
3.17935
3.18897
3.19817
3.20676
3.21448
3.22142
3.22828
3.23555
3.24365
3.25276
3.26293
3.27437
3.28739
3.30262
3.31987
3.33911
3.36047
3.38398
3.40959
3.43728
3.46706
3.49895
3.53252
3.56765
3.60428
3.64236
3.68185
3.72275
3.76504
3.80871
3.85375
3.90014
3.94786
3.99684
4.04701
4.09826
4.15043
4.20335
4.25684
4.31075
4.36515
4.41995
4.4744
4.52771
4.57969
4.62981
4.67729
4.72148
4.76171
4.79747
4.82804
4.85249
4.86983
4.87906
4.87928
4.87022
4.85316
4.83055
3.72035
3.68454
3.6511
3.62044
3.59355
3.57154
3.55397
3.54008
3.52944
3.52166
3.51632
3.51299
3.51139
3.51124
3.51232
3.51464
3.51789
3.52191
3.52666
3.53197
3.53778
3.54395
3.55033
3.55682
3.56337
3.5699
3.57633
3.58254
3.5886
3.59461
3.60041
3.60625
3.61265
3.62
3.62866
3.63914
3.65162
3.66639
3.68409
3.70458
3.72756
3.75288
3.78047
3.80992
3.84073
3.87283
3.90619
3.94077
3.97656
4.01356
4.05176
4.09117
4.13177
4.17357
4.21653
4.26061
4.30574
4.35181
4.39869
4.44621
4.49417
4.54239
4.5907
4.63889
4.68659
4.73343
4.77937
4.82361
4.86552
4.90462
4.94074
4.97346
5.00199
5.02543
5.04289
5.05345
5.05609
5.05006
5.036
5.01609
4.23433
4.20182
4.171
4.14192
4.11516
4.09174
4.07185
4.0551
4.04108
4.02942
4.01983
4.01205
4.00576
4.00072
3.99675
3.99372
3.99153
3.99012
3.98948
3.98961
3.99046
3.99194
3.99398
3.99651
3.99949
4.00294
4.00678
4.01081
4.01499
4.01938
4.02408
4.02926
4.03509
4.04172
4.04926
4.05762
4.06754
4.07962
4.09485
4.11303
4.13373
4.15683
4.18176
4.20775
4.23473
4.26269
4.2916
4.32147
4.35229
4.38407
4.41681
4.45053
4.48522
4.52087
4.55745
4.59494
4.63325
4.67231
4.712
4.75215
4.7926
4.83316
4.87362
4.91378
4.95337
4.99205
5.02954
5.06542
5.09931
5.13091
5.16013
5.1865
5.20933
5.22791
5.24153
5.24945
5.25068
5.24428
5.23035
5.2107
4.83678
4.80652
4.77765
4.74991
4.72339
4.69856
4.67595
4.6559
4.63823
4.62259
4.6087
4.59632
4.58523
4.57522
4.56615
4.55791
4.55044
4.54373
4.53785
4.53298
4.52897
4.52574
4.52319
4.52126
4.51991
4.51911
4.51885
4.51908
4.51981
4.52113
4.52323
4.52638
4.53068
4.5362
4.54311
4.55193
4.56342
4.57712
4.59248
4.60955
4.62828
4.6479
4.66807
4.6888
4.71014
4.73211
4.75472
4.77801
4.802
4.82669
4.85211
4.87826
4.90515
4.93276
4.96108
4.99007
5.01968
5.04984
5.08046
5.1114
5.14252
5.17366
5.20465
5.23529
5.26538
5.29462
5.32273
5.34941
5.37433
5.39721
5.4178
5.43576
5.45065