/*--------------------------------*- C++ -*----------------------------------*\
| =========                 |                                                 |
| \\      /  F ield         | OpenFOAM: The Open Source CFD Toolbox           |
|  \\    /   O peration     | Version:  v2012                                 |
|   \\  /    A nd           | Website:  www.openfoam.com                      |
|    \\/     M anipulation  |                                                 |
\*---------------------------------------------------------------------------*/
FoamFile
{
    version     2.0;
    format      ascii;
    class       volScalarField;
    location    "582";
    object      p;
}
// * * * * * * * * * * * * * * * * * * * * * * * * * * * * * * * * * * * * * //

dimensions      [0 2 -2 0 0 0 0];


internalField   nonuniform List<scalar> 
6598
(
0.353709
0.352929
0.352511
0.352334
0.352258
0.352258
0.352333
0.35251
0.352928
0.353707
0.352822
0.352595
0.352391
0.352263
0.352203
0.352202
0.352263
0.35239
0.352593
0.35282
0.352217
0.352228
0.352149
0.352065
0.352024
0.352024
0.352063
0.352147
0.352226
0.352215
0.351853
0.351918
0.351875
0.351814
0.351787
0.351787
0.351813
0.351873
0.351915
0.35185
0.35156
0.351634
0.351606
0.351556
0.351533
0.351532
0.351553
0.351602
0.351629
0.351556
0.351279
0.351349
0.35133
0.351289
0.351269
0.351268
0.351285
0.351324
0.351343
0.351272
0.351003
0.351066
0.351046
0.351012
0.350995
0.350993
0.351006
0.351037
0.351056
0.350993
0.350732
0.350787
0.350765
0.350733
0.350716
0.350713
0.350724
0.350752
0.350772
0.350717
0.350465
0.350512
0.350488
0.350455
0.350438
0.350433
0.350442
0.350468
0.350489
0.350442
0.3502
0.35024
0.350214
0.35018
0.350161
0.350154
0.350161
0.350184
0.350205
0.350165
0.349938
0.349971
0.349942
0.349907
0.349885
0.349875
0.349878
0.349897
0.349919
0.349885
0.349679
0.349707
0.349675
0.349637
0.349611
0.349595
0.349593
0.349608
0.349628
0.349599
0.349426
0.34945
0.349415
0.349372
0.349338
0.349315
0.349306
0.349314
0.349331
0.349306
0.349185
0.349204
0.349163
0.349112
0.349068
0.349033
0.349013
0.349013
0.349025
0.349002
0.348958
0.348972
0.348924
0.348862
0.348801
0.348749
0.348712
0.348699
0.348705
0.348683
0.348753
0.348763
0.348704
0.348624
0.348539
0.348459
0.348398
0.348367
0.348363
0.348343
0.348582
0.348585
0.348511
0.348406
0.348287
0.348168
0.348067
0.348003
0.347989
0.347972
0.348459
0.348455
0.34836
0.348216
0.348048
0.347869
0.347704
0.347592
0.347565
0.347561
0.348407
0.348394
0.348271
0.348074
0.347828
0.347554
0.347283
0.347079
0.347032
0.347131
0.348453
0.348432
0.348274
0.348007
0.347659
0.347248
0.346805
0.346455
0.346367
0.346762
0.348638
0.348609
0.348409
0.348058
0.347576
0.34697
0.346226
0.345421
0.344462
0.340259
0.348998
0.348965
0.348724
0.348287
0.347673
0.346888
0.345863
0.344485
0.343632
0.34541
0.349576
0.349547
0.349271
0.348756
0.348022
0.347095
0.345951
0.344296
0.342268
0.343941
0.350424
0.350405
0.350099
0.349509
0.348656
0.347568
0.346261
0.344435
0.34135
0.341913
0.35159
0.351585
0.351249
0.350583
0.349607
0.348345
0.346826
0.344905
0.341438
0.341243
0.353123
0.353135
0.352767
0.352021
0.350921
0.349489
0.347749
0.345691
0.341961
0.340597
0.355076
0.355102
0.3547
0.35387
0.352636
0.351024
0.349044
0.346781
0.342867
0.340226
0.357527
0.357575
0.357139
0.356212
0.354827
0.353011
0.350763
0.34823
0.344314
0.340467
0.360572
0.360648
0.36017
0.359132
0.357569
0.355519
0.352966
0.350037
0.346039
0.341755
0.364276
0.364365
0.363838
0.362666
0.360897
0.358583
0.355715
0.35237
0.348113
0.343737
0.368719
0.368827
0.368221
0.366884
0.364876
0.362254
0.359038
0.355298
0.350699
0.346054
0.373979
0.374107
0.373393
0.371862
0.369567
0.366572
0.362924
0.358717
0.353792
0.348708
0.380144
0.380275
0.379445
0.377687
0.375049
0.371602
0.367413
0.362583
0.357201
0.35154
0.387338
0.387467
0.3865
0.384475
0.381431
0.377447
0.372606
0.367027
0.360926
0.354551
0.395703
0.395826
0.394701
0.392365
0.388855
0.384249
0.378644
0.37219
0.365163
0.357894
0.405386
0.405502
0.404196
0.401515
0.397483
0.392179
0.385705
0.378238
0.370116
0.361766
0.416538
0.416646
0.415144
0.412087
0.40749
0.401427
0.394002
0.38541
0.376038
0.366427
0.429309
0.429408
0.427699
0.424248
0.419058
0.412193
0.403761
0.393964
0.383225
0.372191
0.443834
0.443928
0.442004
0.438152
0.432357
0.424676
0.415211
0.404169
0.391993
0.379414
0.460225
0.460315
0.458175
0.453925
0.447536
0.43905
0.428564
0.416285
0.402657
0.388462
0.478552
0.478638
0.476283
0.471649
0.464695
0.455446
0.443992
0.430533
0.415501
0.399687
0.498833
0.498909
0.496342
0.491346
0.483871
0.473927
0.461598
0.447068
0.430744
0.41339
0.521026
0.521078
0.518296
0.51296
0.505021
0.494471
0.481391
0.465946
0.448507
0.429776
0.545009
0.545014
0.542007
0.536349
0.528002
0.516949
0.503263
0.487095
0.468772
0.448912
0.570565
0.570496
0.567244
0.561271
0.552571
0.541116
0.526982
0.510304
0.491363
0.470682
0.597396
0.597217
0.593687
0.587391
0.578379
0.566618
0.552187
0.535215
0.515934
0.494776
0.625119
0.624783
0.620924
0.61428
0.604981
0.592994
0.578407
0.561341
0.541992
0.5207
0.653265
0.652713
0.648459
0.641424
0.63185
0.619708
0.605087
0.588107
0.568928
0.547816
0.681271
0.680435
0.675708
0.668235
0.658399
0.646168
0.631627
0.61489
0.596086
0.575414
0.708471
0.70727
0.701996
0.694059
0.683998
0.671765
0.657425
0.641078
0.622822
0.602796
0.734061
0.732396
0.726546
0.71819
0.708002
0.695903
0.681915
0.666116
0.648563
0.629343
0.757048
0.754825
0.7485
0.739904
0.72979
0.718039
0.704614
0.689547
0.672853
0.654569
0.775994
0.773447
0.766972
0.75848
0.748791
0.737721
0.725144
0.711037
0.695371
0.678139
0.788629
0.787157
0.781365
0.773422
0.764605
0.75465
0.743273
0.730387
0.715929
0.699857
0.793993
0.794192
0.790581
0.78429
0.777047
0.768726
0.758936
0.747542
0.734465
0.719641
0.795215
0.795885
0.794649
0.791014
0.786145
0.78
0.772176
0.762516
0.750945
0.737404
0.795215
0.795445
0.795361
0.794314
0.792232
0.788677
0.783168
0.775472
0.765509
0.753256
0.795133
0.794616
0.794712
0.795447
0.795895
0.794976
0.791938
0.786346
0.778038
0.767054
0.795856
0.794833
0.794742
0.796169
0.798435
0.799758
0.798813
0.794923
0.787979
0.778071
0.797051
0.796464
0.796582
0.798368
0.801377
0.804053
0.804932
0.802605
0.797173
0.788907
0.320406
0.3241
0.326521
0.328539
0.329775
0.330042
0.329492
0.328256
0.326479
0.324517
0.322517
0.32056
0.318842
0.317517
0.316628
0.31617
0.316153
0.316582
0.317437
0.318649
0.320084
0.321518
0.322619
0.323136
0.323275
0.327805
0.324904
0.325093
0.326457
0.327545
0.327912
0.327366
0.326075
0.324347
0.32245
0.32058
0.318864
0.317427
0.316341
0.315632
0.315296
0.315331
0.315749
0.316542
0.317679
0.319084
0.320604
0.322019
0.322941
0.323303
0.328276
0.325138
0.324443
0.325084
0.325798
0.325986
0.325401
0.324175
0.322571
0.320824
0.31913
0.317618
0.316382
0.315475
0.314903
0.314648
0.314694
0.315041
0.315686
0.316615
0.317795
0.31915
0.320564
0.321777
0.322508
0.327
0.324029
0.323167
0.323607
0.324218
0.324361
0.323763
0.322536
0.320973
0.319309
0.317729
0.316369
0.3153
0.314537
0.314068
0.313872
0.313933
0.314251
0.314818
0.315618
0.316625
0.317786
0.319015
0.320163
0.321025
0.32725
0.322841
0.321442
0.321806
0.322545
0.322754
0.32226
0.32114
0.319672
0.318128
0.316687
0.315466
0.314522
0.31386
0.313458
0.313296
0.31336
0.313652
0.314164
0.31488
0.315773
0.316799
0.317871
0.318858
0.319704
0.3283
0.322577
0.320253
0.320411
0.321225
0.321547
0.321201
0.32024
0.318895
0.317463
0.316126
0.315008
0.314152
0.313551
0.313184
0.313038
0.313102
0.313378
0.313859
0.314528
0.315361
0.316317
0.317307
0.318134
0.318796
0.329185
0.323182
0.320354
0.320161
0.320767
0.321116
0.32083
0.320007
0.31875
0.317388
0.316098
0.315017
0.314196
0.313619
0.313266
0.313127
0.313192
0.313462
0.313934
0.314592
0.315414
0.316376
0.317398
0.318166
0.318426
0.33025
0.324752
0.321882
0.321228
0.321513
0.32181
0.321539
0.320688
0.319394
0.318004
0.31668
0.315567
0.314721
0.31413
0.313765
0.313614
0.313671
0.313935
0.314411
0.31509
0.315953
0.316988
0.318177
0.319145
0.318905
0.332394
0.327296
0.324473
0.323479
0.323452
0.323572
0.323227
0.322241
0.320916
0.319426
0.317985
0.316744
0.315789
0.315122
0.314711
0.314529
0.314565
0.314818
0.315297
0.316001
0.316904
0.317967
0.319229
0.320831
0.322499
0.335391
0.330558
0.327767
0.326578
0.326325
0.326246
0.325728
0.324643
0.323297
0.321704
0.320093
0.318636
0.317459
0.316606
0.316064
0.315799
0.31578
0.315978
0.316392
0.317018
0.317847
0.31889
0.320255
0.322084
0.324154
0.338668
0.334101
0.331389
0.330129
0.329749
0.329545
0.328962
0.327866
0.326425
0.324779
0.323052
0.321391
0.319935
0.318779
0.317959
0.31748
0.317313
0.317394
0.317704
0.318252
0.319043
0.320086
0.321388
0.322872
0.324618
0.341944
0.337562
0.33495
0.333673
0.333215
0.33295
0.332375
0.331327
0.329955
0.328404
0.326734
0.325044
0.323456
0.322075
0.320991
0.320254
0.319871
0.31981
0.320067
0.32065
0.321547
0.322658
0.323944
0.325431
0.327368
0.345066
0.34076
0.338171
0.336859
0.336347
0.336067
0.335549
0.334609
0.333397
0.332056
0.330601
0.329095
0.327641
0.326337
0.325304
0.324562
0.32409
0.323926
0.32411
0.324655
0.325518
0.326554
0.327904
0.329567
0.331106
0.34803
0.343612
0.340918
0.339508
0.338925
0.338622
0.338155
0.337324
0.336282
0.335182
0.333978
0.332679
0.331448
0.330382
0.329534
0.328925
0.328547
0.328416
0.328635
0.329209
0.329944
0.330751
0.331671
0.332656
0.333579
0.350985
0.34621
0.34324
0.341628
0.340901
0.340543
0.34011
0.339376
0.338429
0.337503
0.336575
0.335545
0.334512
0.333623
0.332939
0.332475
0.332218
0.332167
0.332341
0.332699
0.333159
0.333696
0.334285
0.334882
0.335483
0.354153
0.348755
0.3453
0.34334
0.342369
0.341892
0.341469
0.34083
0.339953
0.339066
0.338295
0.337533
0.336741
0.336034
0.33547
0.335082
0.334876
0.334841
0.334954
0.335173
0.335471
0.335844
0.336263
0.336688
0.337097
0.357813
0.351517
0.347337
0.344837
0.34349
0.342794
0.34232
0.341757
0.340999
0.340142
0.339367
0.338714
0.33812
0.337587
0.337155
0.336847
0.336675
0.336638
0.336727
0.336913
0.337163
0.337454
0.337763
0.338068
0.338345
0.362307
0.354831
0.349652
0.346379
0.344484
0.343436
0.342803
0.342249
0.341597
0.340852
0.340117
0.33947
0.338934
0.338492
0.338145
0.3379
0.337766
0.337749
0.337849
0.338035
0.338273
0.338536
0.338798
0.339041
0.339249
0.368025
0.359092
0.352617
0.348301
0.345629
0.344058
0.34312
0.34246
0.341842
0.341185
0.340531
0.339942
0.339435
0.339023
0.338719
0.338519
0.338417
0.338414
0.338504
0.338677
0.338921
0.339197
0.339459
0.33969
0.339879
0.375389
0.364746
0.356672
0.351008
0.347285
0.344959
0.343536
0.342618
0.341921
0.341288
0.340686
0.340145
0.339692
0.33934
0.339089
0.338936
0.338873
0.338889
0.338971
0.339122
0.33934
0.339602
0.339876
0.340125
0.340323
0.384826
0.372272
0.362314
0.354978
0.349887
0.346522
0.34437
0.343001
0.342074
0.341364
0.34076
0.340244
0.339826
0.339514
0.339309
0.339203
0.339189
0.339253
0.33938
0.33955
0.339744
0.339965
0.340214
0.340464
0.340676
0.396732
0.382154
0.370078
0.360755
0.353954
0.349217
0.346036
0.343951
0.342583
0.341642
0.340939
0.340388
0.339962
0.339659
0.339477
0.339406
0.339435
0.339546
0.339721
0.339935
0.340162
0.340384
0.340603
0.340821
0.341019
0.411425
0.394824
0.380496
0.368925
0.360079
0.35361
0.349051
0.345931
0.343836
0.34243
0.341464
0.340772
0.340272
0.339929
0.33973
0.339665
0.339717
0.339864
0.340078
0.340328
0.340583
0.340824
0.341045
0.341233
0.341387
0.429086
0.410603
0.394029
0.380061
0.368893
0.360343
0.354031
0.34951
0.346351
0.344181
0.342698
0.34168
0.340981
0.340516
0.340244
0.340144
0.340196
0.340361
0.340598
0.340862
0.341108
0.341319
0.341498
0.341645
0.341761
0.449703
0.429624
0.410981
0.394629
0.380987
0.370078
0.361658
0.355354
0.350753
0.347465
0.345153
0.343544
0.342439
0.341702
0.341258
0.341066
0.341087
0.341225
0.341388
0.341549
0.341703
0.341843
0.341962
0.342065
0.342158
0.473037
0.451765
0.431405
0.412881
0.396797
0.38339
0.372597
0.364163
0.357737
0.352947
0.349439
0.346909
0.345114
0.343877
0.343099
0.342693
0.342505
0.34241
0.342355
0.342333
0.342361
0.342429
0.342508
0.342582
0.342646
0.498617
0.476627
0.455036
0.434746
0.416472
0.400633
0.38736
0.376558
0.367981
0.361314
0.356223
0.352393
0.349551
0.347485
0.346089
0.345177
0.344486
0.34396
0.343617
0.34342
0.343321
0.343283
0.343275
0.34328
0.343286
0.525784
0.503556
0.481283
0.459773
0.439761
0.421786
0.406147
0.392919
0.381997
0.373163
0.366136
0.360621
0.356331
0.353021
0.350576
0.348791
0.347423
0.346406
0.345688
0.345192
0.344846
0.344603
0.34443
0.344301
0.344197
0.553768
0.531727
0.509298
0.487159
0.465987
0.446362
0.428697
0.413213
0.399954
0.388823
0.379627
0.37212
0.366033
0.361094
0.357137
0.354148
0.351972
0.350306
0.349004
0.348006
0.34725
0.346673
0.346224
0.345867
0.345572
0.581789
0.560264
0.538114
0.515876
0.494133
0.473439
0.454251
0.436889
0.421521
0.408176
0.396767
0.387129
0.379045
0.372261
0.366542
0.361946
0.358549
0.355994
0.353926
0.352242
0.350884
0.349795
0.34892
0.348207
0.347611
0.609153
0.588366
0.566796
0.54486
0.523039
0.501822
0.481659
0.462912
0.445833
0.430553
0.417093
0.405383
0.395286
0.386617
0.379163
0.372833
0.367681
0.363647
0.360521
0.358024
0.355933
0.354184
0.352733
0.351516
0.350481
0.635311
0.61539
0.594572
0.573185
0.551619
0.530295
0.509625
0.489976
0.47164
0.454816
0.439611
0.426045
0.414066
0.403573
0.39443
0.386506
0.379679
0.373934
0.369237
0.365405
0.362256
0.359684
0.35757
0.355765
0.354196
0.659889
0.64089
0.620891
0.600159
0.579019
0.557834
0.536976
0.516796
0.497597
0.479618
0.463022
0.447895
0.434261
0.422085
0.411299
0.401813
0.393529
0.386354
0.380146
0.374836
0.370393
0.366673
0.363527
0.360854
0.358571
0.682659
0.664591
0.645405
0.625332
0.604656
0.583702
0.562814
0.542326
0.522541
0.503713
0.486038
0.469651
0.454625
0.440981
0.4287
0.417733
0.408013
0.399457
0.391971
0.385465
0.37984
0.374943
0.370682
0.367036
0.363931
0.703509
0.686336
0.667902
0.648426
0.628165
0.607426
0.58654
0.565833
0.545608
0.526127
0.507605
0.490203
0.474031
0.459149
0.445575
0.433293
0.422263
0.412425
0.403703
0.396013
0.38926
0.383345
0.378181
0.373695
0.369801
0.722317
0.705977
0.688202
0.669208
0.649257
0.628659
0.607741
0.586831
0.566231
0.546211
0.526996
0.508765
0.49165
0.475739
0.461077
0.447674
0.435512
0.42455
0.414729
0.405977
0.398215
0.391356
0.385314
0.380004
0.375347
0.739139
0.723493
0.706217
0.687549
0.66774
0.647113
0.62604
0.604868
0.583899
0.563396
0.543587
0.524661
0.506766
0.490005
0.474443
0.460109
0.447002
0.435097
0.424351
0.414701
0.406079
0.398405
0.391598
0.385578
0.380264
0.753832
0.73874
0.721751
0.703197
0.683408
0.662714
0.641464
0.620019
0.5987
0.577773
0.557463
0.537966
0.519436
0.501989
0.4857
0.470612
0.456738
0.444066
0.432561
0.422174
0.41284
0.40449
0.397047
0.390432
0.384569
0.76544
0.75061
0.73374
0.715207
0.695331
0.67449
0.653061
0.631379
0.609749
0.588444
0.5677
0.547722
0.528672
0.510674
0.493815
0.478144
0.463684
0.450432
0.438362
0.427427
0.417571
0.408727
0.40082
0.393772
0.387499
0.777389
0.762997
0.746325
0.727852
0.707896
0.686851
0.665115
0.643042
0.620951
0.59913
0.577829
0.557262
0.5376
0.518976
0.501483
0.48518
0.470104
0.456261
0.443627
0.432161
0.421809
0.412506
0.404181
0.39676
0.390174
0.317483
0.316972
0.316264
0.322599
0.322235
0.324571
0.325681
0.327631
0.330597
0.326484
0.328982
0.331824
0.329485
0.331302
0.332922
0.332378
0.333458
0.334436
0.334372
0.335099
0.335777
0.336032
0.336512
0.336944
0.337451
0.337743
0.337992
0.33857
0.338743
0.338879
0.339406
0.339517
0.33959
0.340012
0.340098
0.340145
0.340457
0.340541
0.340583
0.34082
0.340908
0.340952
0.341159
0.341246
0.341288
0.341501
0.341573
0.341604
0.341846
0.341899
0.341916
0.342225
0.342261
0.342266
0.342687
0.342702
0.34269
0.34328
0.343257
0.343215
0.344104
0.344012
0.343911
0.345327
0.345114
0.344911
0.347126
0.346723
0.346356
0.349643
0.348957
0.348346
0.352915
0.351862
0.350926
0.356725
0.355221
0.353896
0.361426
0.359377
0.357559
0.366621
0.363993
0.361638
0.371519
0.368349
0.365506
0.375871
0.372226
0.36895
0.37971
0.375654
0.371997
0.382255
0.377901
0.374008
0.384586
0.379866
0.375708
0.360778
0.360732
0.360603
0.360191
0.359293
0.357974
0.356377
0.354626
0.35282
0.351028
0.349299
0.347661
0.34613
0.344713
0.343412
0.342224
0.341145
0.340169
0.33929
0.338502
0.337799
0.337177
0.336629
0.336153
0.335746
0.335403
0.335124
0.334905
0.334747
0.334647
0.334608
0.33463
0.334712
0.334856
0.33506
0.335327
0.335655
0.336047
0.336516
0.337063
0.337684
0.338383
0.339163
0.340024
0.340969
0.342
0.343115
0.344313
0.345592
0.346943
0.348356
0.349815
0.351296
0.352764
0.354169
0.355439
0.356464
0.357137
0.357432
0.357337
0.356748
0.355624
0.353996
0.351777
0.348886
0.345552
0.342038
0.338386
0.334821
0.331673
0.32924
0.327666
0.327034
0.327408
0.328777
0.330941
0.333481
0.335701
0.336923
0.337311
0.360888
0.360759
0.360568
0.359975
0.358935
0.357579
0.355994
0.354285
0.352533
0.3508
0.349126
0.347538
0.346051
0.344671
0.3434
0.342236
0.341176
0.340213
0.339343
0.338561
0.33786
0.337237
0.336687
0.336206
0.335791
0.335439
0.335148
0.334917
0.334744
0.334629
0.334571
0.334567
0.33462
0.334732
0.334908
0.335154
0.335457
0.335799
0.33621
0.336707
0.337271
0.337905
0.338613
0.339394
0.340251
0.341183
0.342187
0.343262
0.344402
0.345598
0.346838
0.348107
0.349379
0.350626
0.351805
0.352864
0.353734
0.354346
0.35465
0.354606
0.354137
0.353124
0.351433
0.349091
0.34615
0.342762
0.339186
0.335623
0.332283
0.32943
0.32726
0.325883
0.325344
0.325702
0.326949
0.329008
0.331645
0.334411
0.336419
0.337271
0.360996
0.360516
0.359921
0.359034
0.357865
0.356491
0.354966
0.353359
0.351727
0.350116
0.348557
0.347072
0.345675
0.344372
0.343166
0.342056
0.341039
0.340112
0.33927
0.338509
0.337825
0.337214
0.336671
0.336194
0.33578
0.335426
0.33513
0.334891
0.334707
0.334579
0.334505
0.334485
0.334518
0.334605
0.334751
0.334961
0.335234
0.335559
0.335936
0.336378
0.336889
0.337466
0.338111
0.338823
0.339603
0.34045
0.341361
0.342332
0.343358
0.344429
0.345533
0.346653
0.347767
0.348847
0.349857
0.350755
0.351497
0.352044
0.352324
0.352229
0.351711
0.350719
0.349146
0.346951
0.344157
0.340889
0.337385
0.333913
0.33073
0.32805
0.326062
0.324866
0.324426
0.324692
0.325638
0.327239
0.329408
0.331942
0.334277
0.335793
0.360209
0.359411
0.35854
0.357521
0.356327
0.354994
0.353567
0.352091
0.350605
0.349139
0.347719
0.34636
0.345075
0.34387
0.342748
0.341709
0.340752
0.339875
0.339074
0.338346
0.337689
0.337098
0.33657
0.336104
0.335695
0.335344
0.335047
0.334803
0.334612
0.334472
0.334384
0.334347
0.334361
0.334428
0.334547
0.334722
0.334952
0.335237
0.335578
0.335978
0.336438
0.336959
0.337542
0.338188
0.338895
0.339663
0.340489
0.341369
0.342297
0.343266
0.344263
0.345274
0.34628
0.347256
0.348175
0.349001
0.3497
0.350251
0.350616
0.350657
0.350211
0.349208
0.347636
0.34548
0.342749
0.339539
0.336057
0.332607
0.329525
0.326999
0.32514
0.324042
0.323684
0.32396
0.3248
0.32615
0.327945
0.330054
0.332134
0.333741
0.358222
0.357255
0.35638
0.355433
0.354342
0.353132
0.351852
0.350542
0.349223
0.347922
0.346655
0.345437
0.344279
0.343185
0.34216
0.341205
0.340319
0.339502
0.338752
0.338067
0.337444
0.336881
0.336375
0.335925
0.335529
0.335185
0.334891
0.334647
0.334451
0.334305
0.334206
0.334155
0.334152
0.334199
0.334295
0.334442
0.33464
0.33489
0.335193
0.33555
0.335964
0.336434
0.336961
0.337545
0.338187
0.338883
0.339633
0.340433
0.341276
0.342156
0.34306
0.343978
0.344893
0.34578
0.346614
0.347371
0.348014
0.348513
0.348834
0.34889
0.348538
0.347679
0.346278
0.344303
0.341771
0.338771
0.33547
0.332126
0.329106
0.326676
0.324946
0.323946
0.323659
0.323975
0.324797
0.326056
0.327678
0.329513
0.331228
0.332561
0.353947
0.353508
0.353169
0.352607
0.351814
0.350855
0.34981
0.348729
0.34762
0.346509
0.345416
0.344354
0.343333
0.342361
0.341442
0.340578
0.339772
0.339023
0.33833
0.337693
0.33711
0.33658
0.336101
0.335672
0.335292
0.334958
0.334671
0.33443
0.334233
0.334081
0.333974
0.333911
0.333893
0.333921
0.333996
0.334117
0.334286
0.334503
0.33477
0.335087
0.335456
0.335877
0.336351
0.336878
0.337457
0.338087
0.338766
0.33949
0.340254
0.341053
0.341874
0.342708
0.343544
0.34435
0.3451
0.345788
0.34638
0.346847
0.347143
0.34718
0.346889
0.346228
0.345118
0.343483
0.34131
0.338681
0.335804
0.332804
0.329954
0.327546
0.325813
0.324827
0.324554
0.324894
0.325725
0.326979
0.328568
0.330286
0.331715
0.332615
0.346413
0.348277
0.348944
0.349078
0.348795
0.348235
0.347537
0.346747
0.345885
0.344987
0.34408
0.343181
0.342303
0.341456
0.340645
0.339876
0.339151
0.338472
0.33784
0.337254
0.336713
0.336219
0.335769
0.335363
0.335
0.33468
0.334401
0.334164
0.333968
0.333813
0.333699
0.333626
0.333595
0.333606
0.33366
0.333757
0.333899
0.334086
0.334318
0.334597
0.334924
0.3353
0.335724
0.336197
0.336718
0.337286
0.337899
0.338553
0.339244
0.339966
0.340711
0.34147
0.342233
0.342979
0.343672
0.344307
0.344863
0.34531
0.345612
0.345707
0.34554
0.345072
0.344249
0.343031
0.34139
0.339348
0.33703
0.334525
0.331995
0.329693
0.327912
0.32682
0.326465
0.326796
0.327678
0.329011
0.33069
0.33243
0.333641
0.333884
0.330557
0.340004
0.343356
0.344925
0.345432
0.345433
0.345171
0.344706
0.344106
0.343428
0.342708
0.341971
0.341234
0.34051
0.339806
0.33913
0.338486
0.337877
0.337304
0.336769
0.336272
0.335813
0.335393
0.335011
0.334668
0.334361
0.334092
0.333861
0.333666
0.333509
0.333389
0.333307
0.333264
0.333259
0.333294
0.333369
0.333485
0.333643
0.333843
0.334087
0.334374
0.334707
0.335084
0.335507
0.335975
0.336486
0.337038
0.33763
0.338256
0.338912
0.33959
0.340279
0.340971
0.341667
0.342348
0.342969
0.343519
0.343952
0.344249
0.344433
0.344439
0.344204
0.343688
0.342904
0.341868
0.340558
0.33887
0.336954
0.33496
0.332992
0.331304
0.330056
0.32934
0.329236
0.329827
0.331051
0.332544
0.334063
0.335352
0.335278
0.330725
0.336188
0.339402
0.341461
0.342478
0.342931
0.343005
0.342805
0.34243
0.341945
0.341392
0.340801
0.340191
0.339578
0.338973
0.338383
0.337813
0.337269
0.336752
0.336265
0.33581
0.335386
0.334994
0.334636
0.33431
0.334018
0.333758
0.333532
0.33334
0.333181
0.333056
0.332966
0.332911
0.332892
0.332909
0.332963
0.333055
0.333186
0.333357
0.333568
0.33382
0.334113
0.334449
0.334827
0.335247
0.335708
0.336209
0.336748
0.33732
0.337922
0.338549
0.339192
0.339842
0.340493
0.34113
0.341737
0.342311
0.342806
0.343197
0.343492
0.343659
0.34367
0.343497
0.343122
0.342559
0.341821
0.340857
0.339742
0.338622
0.337506
0.336319
0.335236
0.334384
0.333847
0.333728
0.334188
0.335408
0.337669
0.34094
0.343176
0.333577
0.336234
0.338205
0.339673
0.340607
0.341128
0.341309
0.341245
0.341011
0.340661
0.340233
0.339755
0.339247
0.338726
0.338202
0.337685
0.337179
0.336691
0.336224
0.335779
0.335359
0.334966
0.3346
0.334262
0.333953
0.333672
0.333422
0.333201
0.33301
0.332849
0.33272
0.332622
0.332557
0.332524
0.332525
0.332561
0.332632
0.332739
0.332883
0.333066
0.333287
0.333547
0.333847
0.334187
0.334567
0.334987
0.335446
0.335942
0.336473
0.337036
0.337625
0.338237
0.338864
0.339499
0.340132
0.340752
0.34135
0.341902
0.342397
0.342827
0.343175
0.343428
0.343575
0.34361
0.343537
0.343372
0.343117
0.34279
0.342413
0.342143
0.341921
0.341706
0.341669
0.342017
0.342668
0.343523
0.3447
0.346878
0.350941
0.356587
0.334216
0.336167
0.33764
0.338736
0.339477
0.3399
0.340073
0.340052
0.339887
0.339616
0.339268
0.338869
0.338437
0.337985
0.337524
0.337064
0.33661
0.336167
0.335739
0.335329
0.33494
0.334572
0.334227
0.333906
0.333611
0.33334
0.333097
0.332879
0.332689
0.332527
0.332393
0.332289
0.332214
0.332169
0.332156
0.332174
0.332226
0.332313
0.332434
0.332592
0.332786
0.333018
0.333288
0.333598
0.333946
0.334334
0.33476
0.335225
0.335726
0.336261
0.336828
0.337422
0.33804
0.338675
0.33932
0.339969
0.340612
0.341238
0.34184
0.342409
0.342938
0.343418
0.343847
0.344226
0.344562
0.344866
0.34516
0.345471
0.345831
0.346291
0.346913
0.347736
0.348751
0.349974
0.351504
0.353465
0.355978
0.359172
0.363257
0.368363
0.33455
0.336048
0.337253
0.338151
0.338737
0.339069
0.339205
0.339185
0.339044
0.338811
0.338509
0.338159
0.337775
0.337371
0.336956
0.336537
0.336121
0.335712
0.335315
0.334932
0.334565
0.334217
0.333889
0.333581
0.333296
0.333033
0.332794
0.332579
0.332389
0.332225
0.332086
0.331975
0.331891
0.331835
0.331809
0.331813
0.331849
0.331917
0.332018
0.332155
0.332327
0.332536
0.332782
0.333067
0.333391
0.333754
0.334157
0.3346
0.335081
0.3356
0.336155
0.336744
0.337363
0.33801
0.33868
0.339368
0.340068
0.340774
0.341482
0.342186
0.342883
0.34357
0.344247
0.344919
0.345594
0.346283
0.347005
0.347783
0.348648
0.349632
0.350775
0.352127
0.353718
0.355555
0.357686
0.36019
0.363157
0.366512
0.370101
0.373906
0.335454
0.336436
0.337276
0.337927
0.338351
0.338576
0.338651
0.338602
0.338455
0.33823
0.337946
0.33762
0.337265
0.336889
0.336502
0.336111
0.335721
0.335336
0.33496
0.334596
0.334245
0.333911
0.333594
0.333296
0.333018
0.33276
0.332524
0.33231
0.332119
0.331951
0.331807
0.331689
0.331597
0.331531
0.331494
0.331485
0.331506
0.331558
0.331643
0.331762
0.331916
0.332106
0.332333
0.332599
0.332904
0.33325
0.333637
0.334065
0.334535
0.335046
0.335599
0.336191
0.336821
0.337488
0.338189
0.338921
0.339682
0.340467
0.341275
0.342102
0.342949
0.343814
0.3447
0.345612
0.346558
0.347549
0.3486
0.349731
0.350967
0.352335
0.353871
0.355623
0.357603
0.359722
0.361946
0.364351
0.366988
0.369824
0.372821
0.376026
0.336432
0.337042
0.337569
0.337979
0.338241
0.338357
0.338355
0.338258
0.338083
0.337846
0.337561
0.337241
0.336896
0.336534
0.336162
0.335786
0.335411
0.33504
0.334677
0.334325
0.333985
0.33366
0.33335
0.333057
0.332783
0.332527
0.332292
0.332077
0.331883
0.331712
0.331563
0.331438
0.331338
0.331263
0.331215
0.331194
0.331203
0.331241
0.331312
0.331416
0.331555
0.33173
0.331943
0.332194
0.332486
0.33282
0.333196
0.333616
0.334081
0.334591
0.335147
0.335749
0.336395
0.337086
0.337821
0.338599
0.339418
0.340276
0.341173
0.342109
0.343082
0.344095
0.34515
0.346251
0.347404
0.348618
0.349906
0.35128
0.352757
0.35436
0.356126
0.358082
0.360141
0.362204
0.364299
0.366523
0.368924
0.371471
0.374137
0.376915
0.337347
0.337705
0.337999
0.338212
0.338327
0.338342
0.33826
0.338105
0.337891
0.337628
0.337329
0.337002
0.336655
0.336295
0.335927
0.335557
0.335189
0.334825
0.334468
0.334121
0.333786
0.333465
0.333158
0.332868
0.332594
0.332339
0.332102
0.331885
0.331688
0.331512
0.331358
0.331226
0.331118
0.331035
0.330977
0.330946
0.330943
0.33097
0.331029
0.33112
0.331247
0.33141
0.331611
0.331852
0.332135
0.33246
0.332831
0.333247
0.333711
0.334225
0.334788
0.335401
0.336067
0.336783
0.337552
0.338372
0.339244
0.340167
0.341141
0.342166
0.343243
0.344373
0.345558
0.346801
0.348106
0.349478
0.350924
0.352453
0.354073
0.355804
0.357668
0.359628
0.361576
0.36354
0.365591
0.367723
0.369939
0.372239
0.374616
0.377049
0.338213
0.338392
0.338515
0.338576
0.33856
0.338474
0.338319
0.338102
0.337841
0.337546
0.337224
0.336881
0.336524
0.336159
0.335788
0.335417
0.335049
0.334685
0.33433
0.333984
0.33365
0.333329
0.333022
0.332731
0.332457
0.332199
0.33196
0.331739
0.331538
0.331357
0.331197
0.331059
0.330943
0.330851
0.330784
0.330743
0.330731
0.330748
0.330796
0.330877
0.330993
0.331146
0.331338
0.331571
0.331847
0.332167
0.332535
0.33295
0.333417
0.333935
0.334508
0.335135
0.335819
0.33656
0.33736
0.338218
0.339136
0.340112
0.341149
0.342246
0.343403
0.344621
0.345902
0.347247
0.348656
0.350132
0.351678
0.353294
0.354986
0.356763
0.358627
0.3605
0.36237
0.364306
0.366293
0.368306
0.37035
0.372434
0.374564
0.376725
0.338983
0.339042
0.339051
0.339006
0.338898
0.338723
0.338491
0.338212
0.337903
0.337572
0.337223
0.336861
0.33649
0.336113
0.335736
0.335359
0.334987
0.33462
0.334261
0.333913
0.333576
0.333253
0.332944
0.332651
0.332373
0.332112
0.331869
0.331644
0.331438
0.331251
0.331085
0.330939
0.330816
0.330716
0.33064
0.33059
0.330568
0.330576
0.330614
0.330686
0.330794
0.330938
0.331123
0.33135
0.33162
0.331938
0.332304
0.33272
0.33319
0.333715
0.334297
0.334937
0.335639
0.336402
0.337228
0.338118
0.339073
0.340093
0.341178
0.342329
0.343545
0.344827
0.346174
0.347587
0.349064
0.350603
0.352203
0.353863
0.355583
0.357361
0.359167
0.360967
0.362799
0.364688
0.366595
0.368496
0.370394
0.372308
0.374252
0.376224
0.339627
0.339614
0.339553
0.339444
0.339279
0.339044
0.338747
0.33841
0.338053
0.337686
0.33731
0.336928
0.336541
0.336152
0.335765
0.33538
0.335001
0.334628
0.334264
0.333911
0.33357
0.333243
0.33293
0.332631
0.332349
0.332083
0.331835
0.331605
0.331393
0.3312
0.331027
0.330874
0.330743
0.330634
0.33055
0.330491
0.33046
0.330458
0.330488
0.330551
0.330651
0.330788
0.330966
0.331187
0.331454
0.331769
0.332134
0.332552
0.333026
0.333557
0.334147
0.3348
0.335516
0.336298
0.337146
0.338061
0.339045
0.340097
0.341218
0.342407
0.343664
0.344988
0.346378
0.347833
0.349348
0.350919
0.352546
0.354223
0.355944
0.357694
0.35943
0.361169
0.362966
0.364803
0.366639
0.368451
0.370239
0.372026
0.373844
0.375703
0.340151
0.340101
0.34
0.339852
0.339656
0.339394
0.339052
0.338665
0.338269
0.337874
0.337476
0.337075
0.336673
0.336272
0.335874
0.335481
0.335095
0.334716
0.334347
0.333989
0.333642
0.333308
0.332988
0.332683
0.332394
0.332122
0.331867
0.33163
0.331411
0.331211
0.33103
0.330869
0.330729
0.330612
0.330518
0.33045
0.33041
0.330399
0.33042
0.330475
0.330566
0.330697
0.330869
0.331085
0.331348
0.331661
0.332025
0.332445
0.332921
0.333457
0.334056
0.334718
0.335447
0.336243
0.337108
0.338042
0.339047
0.340122
0.341267
0.342481
0.343763
0.345113
0.34653
0.34801
0.349543
0.351125
0.352757
0.354428
0.356114
0.357798
0.359476
0.361186
0.36295
0.364739
0.366519
0.368265
0.369975
0.371675
0.373412
0.375191
0.340579
0.340516
0.340397
0.340229
0.340016
0.339728
0.339354
0.338941
0.338529
0.338117
0.337703
0.337289
0.336875
0.336464
0.336057
0.335657
0.335265
0.334882
0.33451
0.334149
0.333797
0.333457
0.33313
0.332817
0.33252
0.332239
0.331975
0.331729
0.331502
0.331295
0.331106
0.330935
0.330785
0.330656
0.330551
0.330473
0.330422
0.330401
0.330413
0.330459
0.330542
0.330665
0.330831
0.331042
0.331301
0.331612
0.331976
0.332396
0.332875
0.333416
0.334021
0.334692
0.33543
0.336238
0.337116
0.338065
0.339085
0.340175
0.341335