/*--------------------------------*- C++ -*----------------------------------*\
| =========                 |                                                 |
| \\      /  F ield         | OpenFOAM: The Open Source CFD Toolbox           |
|  \\    /   O peration     | Version:  v2012                                 |
|   \\  /    A nd           | Website:  www.openfoam.com                      |
|    \\/     M anipulation  |                                                 |
\*---------------------------------------------------------------------------*/
FoamFile
{
    version     2.0;
    format      ascii;
    class       surfaceScalarField;
    location    "582";
    object      phi;
}
// * * * * * * * * * * * * * * * * * * * * * * * * * * * * * * * * * * * * * //

dimensions      [0 3 -1 0 0 0 0];
oriented        oriented;


internalField   nonuniform List<scalar> 
12946
(
7.2434e-08
0.000199928
4.73089e-08
0.000200025
2.77751e-08
0.00020002
1.29208e-08
0.000200015
4.40287e-11
0.000200013
-1.28391e-08
0.000200013
-2.77119e-08
0.000200015
-4.72765e-08
0.00020002
-7.24234e-08
0.000200025
0.000199928
1.13324e-07
0.000199814
9.87636e-08
0.00020004
6.59419e-08
0.000200052
3.23998e-08
0.000200048
1.32045e-10
0.000200045
-3.21538e-08
0.000200045
-6.57507e-08
0.000200048
-9.86643e-08
0.000200052
-1.13304e-07
0.00020004
0.000199814
1.15348e-07
0.000199699
1.15074e-07
0.00020004
8.30824e-08
0.000200084
4.25849e-08
0.000200089
2.47873e-10
0.000200087
-4.21125e-08
0.000200088
-8.26694e-08
0.000200089
-1.14741e-07
0.000200085
-1.15158e-07
0.00020004
0.000199699
1.11966e-07
0.000199587
1.16388e-07
0.000200036
8.75537e-08
0.000200113
4.62264e-08
0.00020013
3.963e-10
0.000200133
-4.54803e-08
0.000200133
-8.69431e-08
0.00020013
-1.15935e-07
0.000200114
-1.1171e-07
0.000200036
0.000199587
1.07644e-07
0.000199479
1.13671e-07
0.00020003
8.71599e-08
0.00020014
4.6719e-08
0.000200171
6.23364e-10
0.000200179
-4.55371e-08
0.00020018
-8.61544e-08
0.000200171
-1.1294e-07
0.00020014
-1.07236e-07
0.00020003
0.00019948
1.02199e-07
0.000199377
1.09151e-07
0.000200023
8.50633e-08
0.000200164
4.60566e-08
0.00020021
9.80597e-10
0.000200224
-4.41807e-08
0.000200225
-8.34373e-08
0.00020021
-1.07971e-07
0.000200165
-1.01563e-07
0.000200024
0.000199379
9.68211e-08
0.00019928
1.03967e-07
0.000200015
8.14645e-08
0.000200186
4.45857e-08
0.000200247
1.48943e-09
0.000200268
-4.17499e-08
0.000200268
-7.90468e-08
0.000200248
-1.02179e-07
0.000200188
-9.58451e-08
0.000200018
0.000199283
9.20109e-08
0.000199188
9.88911e-08
0.000200009
7.77011e-08
0.000200207
4.3008e-08
0.000200281
2.2502e-09
0.000200308
-3.87218e-08
0.000200309
-7.40356e-08
0.000200283
-9.61906e-08
0.00020021
-9.05333e-08
0.000200012
0.000199192
8.79767e-08
0.0001991
9.45801e-08
0.000200002
7.46752e-08
0.000200227
4.19446e-08
0.000200314
3.39913e-09
0.000200347
-3.54662e-08
0.000200348
-6.91302e-08
0.000200317
-9.0507e-08
0.000200232
-8.57447e-08
0.000200007
0.000199106
8.47909e-08
0.000199015
9.12887e-08
0.000199995
7.26037e-08
0.000200246
4.16745e-08
0.000200345
5.12009e-09
0.000200383
-3.19166e-08
0.000200385
-6.42526e-08
0.000200349
-8.515e-08
0.000200252
-8.14213e-08
0.000200003
0.000199025
8.24846e-08
0.000198933
8.91804e-08
0.000199989
7.17202e-08
0.000200264
4.24746e-08
0.000200374
7.69598e-09
0.000200418
-2.78082e-08
0.00020042
-5.91607e-08
0.00020038
-7.99224e-08
0.000200273
-7.73977e-08
0.000200001
0.000198948
8.11402e-08
0.000198852
8.84885e-08
0.000199981
7.23412e-08
0.00020028
4.47381e-08
0.000200402
1.15544e-08
0.000200451
-2.27201e-08
0.000200455
-5.34688e-08
0.000200411
-7.44874e-08
0.000200294
-7.34423e-08
0.0002
0.000198874
8.09357e-08
0.000198771
8.95472e-08
0.000199973
7.49892e-08
0.000200294
4.90762e-08
0.000200428
1.73534e-08
0.000200483
-1.60076e-08
0.000200488
-4.65998e-08
0.000200442
-6.83808e-08
0.000200316
-6.92694e-08
0.000200001
0.000198805
8.18896e-08
0.000198689
9.24293e-08
0.000199962
8.01839e-08
0.000200306
5.63649e-08
0.000200451
2.6072e-08
0.000200513
-6.72316e-09
0.000200521
-3.77338e-08
0.000200473
-6.09822e-08
0.000200339
-6.45243e-08
0.000200004
0.00019874
8.45619e-08
0.000198604
9.83218e-08
0.000199948
8.92602e-08
0.000200316
6.79807e-08
0.000200473
3.91832e-08
0.000200542
6.53827e-09
0.000200553
-2.56816e-08
0.000200505
-5.14407e-08
0.000200365
-5.8769e-08
0.000200012
0.000198682
8.95615e-08
0.000198515
1.0828e-07
0.00019993
1.03616e-07
0.00020032
8.56158e-08
0.000200491
5.85565e-08
0.000200569
2.61175e-08
0.000200586
-8.48729e-09
0.00020054
-3.86088e-08
0.000200395
-5.1536e-08
0.000200025
0.00019863
9.77526e-08
0.000198417
1.23981e-07
0.000199904
1.25859e-07
0.000200318
1.12676e-07
0.000200504
8.82335e-08
0.000200594
5.50024e-08
0.000200619
1.63792e-08
0.000200578
-2.10151e-08
0.000200433
-4.2607e-08
0.000200046
0.000198588
1.1027e-07
0.000198307
1.47641e-07
0.000199866
1.59239e-07
0.000200307
1.53612e-07
0.00020051
1.33264e-07
0.000200614
9.86703e-08
0.000200654
5.28176e-08
0.000200624
1.83875e-09
0.000200483
-3.41309e-08
0.000200082
0.000198553
1.28586e-07
0.000198178
1.82339e-07
0.000199812
2.0856e-07
0.000200281
2.14803e-07
0.000200503
2.01694e-07
0.000200627
1.68127e-07
0.000200687
1.1354e-07
0.000200679
4.52532e-08
0.000200552
-1.99253e-08
0.000200147
0.000198533
1.54069e-07
0.000198024
2.31537e-07
0.000199735
2.79445e-07
0.000200233
3.04355e-07
0.000200478
3.04665e-07
0.000200627
2.74962e-07
0.000200717
2.01893e-07
0.000200752
7.37969e-08
0.00020068
-1.17725e-07
0.000200339
0.000198416
1.83399e-07
0.000197841
2.89759e-07
0.000199629
3.66623e-07
0.000200156
4.20495e-07
0.000200425
4.50672e-07
0.000200597
4.55064e-07
0.000200713
4.32048e-07
0.000200775
3.82327e-07
0.00020073
6.16684e-07
0.000200104
0.00019409
4.94221e-06
2.26659e-07
0.000197614
3.7344e-07
0.000199482
4.90682e-07
0.000200038
5.8589e-07
0.000200329
6.59803e-07
0.000200523
7.15684e-07
0.000200657
7.74451e-07
0.000200716
8.92002e-07
0.000200612
1.16065e-06
0.000199836
0.000192091
3.16035e-06
2.79592e-07
0.000197335
4.76652e-07
0.000199285
6.43914e-07
0.000199871
7.90021e-07
0.000200183
9.16849e-07
0.000200396
1.02784e-06
0.000200546
1.13985e-06
0.000200604
1.34036e-06
0.000200412
1.93036e-06
0.000199246
0.00018908
4.94079e-06
3.42252e-07
0.000196992
5.99179e-07
0.000199028
8.25746e-07
0.000199645
1.03169e-06
0.000199977
1.22057e-06
0.000200207
1.39973e-06
0.000200367
1.59734e-06
0.000200406
1.93286e-06
0.000200076
2.82664e-06
0.000198352
0.000185715
6.19162e-06
4.15143e-07
0.000196577
7.41791e-07
0.000198701
1.03731e-06
0.000199349
1.31272e-06
0.000199702
1.57365e-06
0.000199946
1.83253e-06
0.000200108
2.12796e-06
0.000200111
2.59322e-06
0.000199611
3.69347e-06
0.000197252
0.000182329
7.07993e-06
4.99051e-07
0.000196078
9.05559e-07
0.000198295
1.27987e-06
0.000198975
1.63423e-06
0.000199348
1.97598e-06
0.000199604
2.32157e-06
0.000199762
2.71812e-06
0.000199714
3.31494e-06
0.000199014
4.64071e-06
0.000195926
0.000178998
7.97122e-06
5.95619e-07
0.000195483
1.09214e-06
0.000197798
1.55536e-06
0.000198512
1.99847e-06
0.000198904
2.43041e-06
0.000199172
2.87177e-06
0.000199321
3.37889e-06
0.000199207
4.11664e-06
0.000198276
5.64798e-06
0.000194395
0.000175868
8.77766e-06
7.30878e-07
0.000194752
1.35378e-06
0.000197175
1.93974e-06
0.000197926
2.50395e-06
0.00019834
3.05752e-06
0.000198619
3.62592e-06
0.000198752
4.27543e-06
0.000198558
5.18133e-06
0.00019737
6.89226e-06
0.000192684
0.00017285
9.91103e-06
8.61427e-07
0.00019389
1.60949e-06
0.000196427
2.31847e-06
0.000197217
3.00387e-06
0.000197655
3.67893e-06
0.000197944
4.3734e-06
0.000198058
5.16355e-06
0.000197768
6.23636e-06
0.000196297
8.07947e-06
0.000190841
0.000170103
1.08265e-05
1.01322e-06
0.000192877
1.90023e-06
0.00019554
2.74827e-06
0.000196369
3.5704e-06
0.000196833
4.38142e-06
0.000197133
5.21423e-06
0.000197225
6.15117e-06
0.000196831
7.38683e-06
0.000195062
9.34583e-06
0.000188882
0.000167642
1.18069e-05
1.18508e-06
0.000191692
2.23386e-06
0.000194491
3.23796e-06
0.000195365
4.21363e-06
0.000195857
5.17553e-06
0.000196171
6.15764e-06
0.000196243
7.24228e-06
0.000195746
8.61646e-06
0.000193688
1.06341e-05
0.000186864
0.000165527
1.27489e-05
1.37921e-06
0.000190313
2.61696e-06
0.000193254
3.79876e-06
0.000194183
4.94762e-06
0.000194708
6.07793e-06
0.000195041
7.22312e-06
0.000195098
8.46209e-06
0.000194507
9.96247e-06
0.000192187
1.19908e-05
0.000184836
0.000163803
1.3715e-05
1.60488e-06
0.000188708
3.05581e-06
0.000191803
4.44259e-06
0.000192796
5.78987e-06
0.000193361
7.11194e-06
0.000193719
8.44027e-06
0.000193769
9.84763e-06
0.0001931
1.14794e-05
0.000190555
1.34914e-05
0.000182824
0.000162439
1.48551e-05
1.8657e-06
0.000186842
3.56063e-06
0.000190108
5.1838e-06
0.000191173
6.76049e-06
0.000191784
8.30438e-06
0.000192175
9.84373e-06
0.00019223
1.14411e-05
0.000191502
1.3212e-05
0.000188784
1.5176e-05
0.00018086
0.000161383
1.62316e-05
2.16591e-06
0.000184676
4.14204e-06
0.000188132
6.03791e-06
0.000189277
7.88048e-06
0.000189942
9.68243e-06
0.000190373
1.14677e-05
0.000190445
1.32857e-05
0.000189684
1.52103e-05
0.00018686
1.71298e-05
0.00017894
0.000160573
1.794e-05
2.51024e-06
0.000182166
4.80978e-06
0.000185832
7.01961e-06
0.000187067
9.16977e-06
0.000187791
1.12719e-05
0.000188271
1.33445e-05
0.000188372
1.54206e-05
0.000187608
1.75223e-05
0.000184758
1.94343e-05
0.000177028
0.00015993
2.00778e-05
2.90285e-06
0.000179263
5.57213e-06
0.000183163
8.14144e-06
0.000184498
1.06454e-05
0.000185288
1.3095e-05
0.000185821
1.55023e-05
0.000185965
1.7881e-05
0.000185229
2.02012e-05
0.000182438
2.21645e-05
0.000175065
0.000159358
2.27357e-05
3.34671e-06
0.000175916
6.43527e-06
0.000180074
9.41264e-06
0.00018152
1.23196e-05
0.000182381
1.51674e-05
0.000182973
1.79614e-05
0.000183171
2.0695e-05
0.000182496
2.329e-05
0.000179843
2.53834e-05
0.000172971
0.000158749
2.5993e-05
3.84345e-06
0.000172073
7.40267e-06
0.000176515
1.08382e-05
0.000178085
1.41988e-05
0.00017902
1.74971e-05
0.000179675
2.07323e-05
0.000179936
2.38786e-05
0.00017935
2.68162e-05
0.000176905
2.91363e-05
0.000170651
0.000157973
2.99117e-05
4.39325e-06
0.00016768
8.47458e-06
0.000172434
1.24178e-05
0.000174142
1.62817e-05
0.000175156
2.00818e-05
0.000175875
2.38126e-05
0.000176205
2.74319e-05
0.00017573
3.07876e-05
0.00017355
3.34438e-05
0.000167995
0.000156889
3.45278e-05
4.99472e-06
0.000162685
9.6479e-06
0.000167781
1.4146e-05
0.000169644
1.85593e-05
0.000170743
2.29084e-05
0.000171526
2.71855e-05
0.000171928
3.13364e-05
0.00017158
3.51879e-05
0.000169698
3.82956e-05
0.000164887
0.000155344
3.98412e-05
5.64771e-06
0.000157037
1.09163e-05
0.000162512
1.60115e-05
0.000164548
2.10144e-05
0.00016574
2.59525e-05
0.000166588
3.08191e-05
0.000167061
3.55535e-05
0.000166845
3.99736e-05
0.000165278
4.36446e-05
0.000161216
0.000153182
4.58062e-05
6.35121e-06
0.000150686
1.22718e-05
0.000156591
1.7999e-05
0.000158821
2.36229e-05
0.000160116
2.91797e-05
0.000161031
3.46669e-05
0.000161574
4.00244e-05
0.000161488
4.5073e-05
0.000160229
4.94048e-05
0.000156885
0.000150263
5.23238e-05
7.1008e-06
0.000143585
1.3706e-05
0.000149986
2.00909e-05
0.000152436
2.6356e-05
0.000153851
3.25475e-05
0.000154839
3.86711e-05
0.00015545
4.46734e-05
0.000155485
5.03895e-05
0.000154513
5.54525e-05
0.000151822
0.000146474
5.92413e-05
7.89275e-06
0.000135693
1.52104e-05
0.000142669
2.22687e-05
0.000145378
2.91824e-05
0.000146937
3.60093e-05
0.000148012
4.27663e-05
0.000148693
4.94131e-05
0.000148838
5.58079e-05
0.000148118
6.16359e-05
0.000145994
0.000141749
6.6361e-05
8.7258e-06
0.000126967
1.6778e-05
0.000134616
2.45158e-05
0.00013764
3.20716e-05
0.000139381
3.95177e-05
0.000140566
4.68854e-05
0.000141326
5.41517e-05
0.000141572
6.12049e-05
0.000141065
6.77885e-05
0.00013941
0.000136079
7.34587e-05
9.60201e-06
0.000117365
1.84066e-05
0.000125812
2.68191e-05
0.000129228
3.49963e-05
0.000131204
4.30283e-05
0.000132534
5.09638e-05
0.00013339
5.8801e-05
0.000133735
6.64611e-05
0.000133405
7.37479e-05
0.000132123
0.000129516
8.03111e-05
1.05278e-05
0.000106837
2.00993e-05
0.00011624
2.91709e-05
0.000120156
3.79337e-05
0.000122441
4.65014e-05
0.000123967
5.49436e-05
0.000124948
6.32817e-05
0.000125397
7.14709e-05
0.000125216
7.93719e-05
0.000124222
0.000122165
8.67228e-05
1.15157e-05
9.53213e-05
2.18659e-05
0.00010589
3.15672e-05
0.000110455
4.0863e-05
0.000113145
4.98997e-05
0.00011493
5.87719e-05
0.000116076
6.75252e-05
0.000116644
7.61474e-05
0.000116594
8.45494e-05
0.00011582
0.000114168
9.25468e-05
1.25852e-05
8.2736e-05
2.37185e-05
9.47568e-05
3.40013e-05
0.000100172
4.37583e-05
0.000103388
5.31813e-05
0.000105507
6.23942e-05
0.000106863
7.14679e-05
0.00010757
8.0419e-05
0.000107643
8.92003e-05
0.000107039
0.000105678
9.76898e-05
1.37799e-05
6.89561e-05
2.56597e-05
8.2877e-05
3.64471e-05
8.93847e-05
4.6572e-05
9.32635e-05
5.62834e-05
9.57954e-05
6.57401e-05
9.74062e-05
7.5038e-05
9.82719e-05
8.42178e-05
9.84629e-05
9.32637e-05
9.79929e-05
9.68411e-05
0.000102101
1.515e-05
5.38061e-05
2.76471e-05
7.03799e-05
3.88236e-05
7.82082e-05
4.92058e-05
8.28813e-05
5.90988e-05
8.59024e-05
6.87017e-05
8.78034e-05
7.81351e-05
8.88384e-05
8.7458e-05
8.91401e-05
9.66759e-05
8.87751e-05
8.77727e-05
0.000105744
1.65541e-05
3.7252e-05
2.9577e-05
5.7357e-05
4.097e-05
6.68151e-05
5.14623e-05
7.2389e-05
6.14285e-05
7.59362e-05
7.10955e-05
7.81364e-05
8.05989e-05
7.9335e-05
9.00077e-05
7.97312e-05
9.93389e-05
7.94439e-05
7.85464e-05
0.000108565
1.65984e-05
2.06536e-05
3.07829e-05
4.31725e-05
4.25392e-05
5.50588e-05
5.30551e-05
6.18731e-05
6.29873e-05
6.6004e-05
7.26464e-05
6.84772e-05
8.21805e-05
6.98009e-05
9.16555e-05
7.02562e-05
0.000101087
7.00127e-05
6.91813e-05
0.000110452
1.36291e-05
7.02453e-06
2.91115e-05
2.769e-05
4.20515e-05
4.21189e-05
5.30961e-05
5.08285e-05
6.31947e-05
5.59053e-05
7.29094e-05
5.87626e-05
8.25043e-05
6.0206e-05
9.20798e-05
6.06806e-05
0.000101654
6.04388e-05
5.96359e-05
0.000111199
8.80731e-06
-1.78278e-06
2.34369e-05
1.30604e-05
3.74819e-05
2.80739e-05
4.97691e-05
3.85412e-05
6.07232e-05
4.49513e-05
7.09525e-05
4.85333e-05
8.08876e-05
5.02708e-05
9.07483e-05
5.082e-05
0.000100605
5.05816e-05
4.97941e-05
0.000110447
5.18298e-06
-6.96576e-06
1.5725e-05
2.5184e-06
2.87088e-05
1.50901e-05
4.16533e-05
2.55967e-05
5.37883e-05
3.28163e-05
6.51504e-05
3.71713e-05
7.60203e-05
3.94009e-05
8.66363e-05
4.0204e-05
9.71218e-05
4.00961e-05
3.93965e-05
0.000107519
2.36766e-06
-9.33343e-06
8.03476e-06
-3.1487e-06
1.74656e-05
5.6592e-06
2.89948e-05
1.40676e-05
4.13351e-05
2.0476e-05
5.37677e-05
2.47386e-05
6.6006e-05
2.71626e-05
7.79711e-05
2.8239e-05
8.96609e-05
2.84062e-05
2.79305e-05
0.000101127
-2.03058e-06
-7.30285e-06
-6.59727e-07
-4.51955e-06
4.71173e-06
2.87746e-07
1.33376e-05
5.44171e-06
2.4438e-05
9.37559e-06
3.70276e-05
1.2149e-05
5.03688e-05
1.38214e-05
6.38057e-05
1.4802e-05
7.70274e-05
1.51846e-05
1.49097e-05
9.00482e-05
-7.30285e-06
-1.18224e-05
-1.15347e-05
-6.09295e-06
3.28265e-06
1.54317e-05
2.92531e-05
4.40552e-05
5.92397e-05
7.41494e-05
-2.71966e-05
3.21388e-05
-2.43996e-05
-2.79697e-06
-1.87957e-05
-5.6039e-06
-1.23943e-05
-6.40141e-06
-5.53387e-06
-6.86043e-06
1.25509e-06
-6.78896e-06
7.7141e-06
-6.45901e-06
1.37787e-05
-6.06459e-06
1.92468e-05
-5.46808e-06
2.38874e-05
-4.64059e-06
2.75625e-05
-3.67513e-06
3.03083e-05
-2.74581e-06
3.21817e-05
-1.87345e-06
3.32828e-05
-1.10103e-06
3.36676e-05
-3.84838e-07
3.33268e-05
3.40772e-07
3.22362e-05
1.09064e-06
3.03329e-05
1.90331e-06
2.75455e-05
2.7874e-06
2.37845e-05
3.76102e-06
1.90132e-05
4.77127e-06
1.33603e-05
5.65286e-06
7.44595e-06
5.91439e-06
2.52247e-06
4.92348e-06
2.52246e-06
-1.34755e-05
4.87746e-05
-1.80732e-05
1.80071e-06
-1.65403e-05
-7.13679e-06
-1.27824e-05
-1.01593e-05
-7.85596e-06
-1.17869e-05
-2.22204e-06
-1.24229e-05
3.57927e-06
-1.22603e-05
8.98185e-06
-1.14672e-05
1.36805e-05
-1.01668e-05
1.75982e-05
-8.55828e-06
2.07734e-05
-6.85026e-06
2.32039e-05
-5.17635e-06
2.49364e-05
-3.60592e-06
2.60276e-05
-2.19222e-06
2.65532e-05
-9.10463e-07
2.6591e-05
3.02959e-07
2.61625e-05
1.51916e-06
2.52588e-05
2.80698e-06
2.38217e-05
4.22451e-06
2.17743e-05
5.8084e-06
1.90123e-05
7.53326e-06
1.54261e-05
9.23909e-06
1.08613e-05
1.04792e-05
5.49264e-06
1.02921e-05
8.0151e-06
-8.32094e-06
6.20364e-05
-1.48733e-05
8.35307e-06
-1.56461e-05
-6.36394e-06
-1.35364e-05
-1.22691e-05
-9.84791e-06
-1.54753e-05
-5.30694e-06
-1.69638e-05
-4.02813e-07
-1.71644e-05
4.35865e-06
-1.62286e-05
8.58371e-06
-1.43918e-05
1.20989e-05
-1.20734e-05
1.4857e-05
-9.6084e-06
1.69034e-05
-7.22277e-06
1.83567e-05
-5.05922e-06
1.93086e-05
-3.14412e-06
1.98146e-05
-1.41641e-06
1.99103e-05
2.07233e-07
1.96234e-05
1.80607e-06
1.89738e-05
3.45656e-06
1.79715e-05
5.22682e-06
1.66057e-05
7.17421e-06
1.48178e-05
9.32116e-06
1.24776e-05
1.15793e-05
9.36249e-06
1.35943e-05
5.23207e-06
1.44225e-05
1.32472e-05
-6.04512e-06
7.42731e-05
-1.3922e-05
1.62299e-05
-1.61468e-05
-4.13908e-06
-1.50428e-05
-1.33731e-05
-1.20991e-05
-1.8419e-05
-8.28169e-06
-2.07813e-05
-4.23628e-06
-2.12099e-05
-3.26482e-07
-2.01384e-05
3.20793e-06
-1.79262e-05
6.19505e-06
-1.50605e-05
8.56592e-06
-1.19793e-05
1.03679e-05
-9.02471e-06
1.16988e-05
-6.39016e-06
1.2631e-05
-4.07636e-06
1.32039e-05
-1.98927e-06
1.34344e-05
-2.32763e-08
1.33389e-05
1.9016e-06
1.29375e-05
3.85794e-06
1.22569e-05
5.90742e-06
1.13206e-05
8.11057e-06
1.01263e-05
1.05154e-05
8.61183e-06
1.30938e-05
6.61844e-06
1.55877e-05
3.87717e-06
1.71638e-05
1.71243e-05
-3.37153e-06
8.47246e-05
-1.27214e-05
2.55798e-05
-1.63892e-05
-4.71279e-07
-1.6372e-05
-1.33903e-05
-1.42966e-05
-2.04943e-05
-1.12524e-05
-2.38256e-05
-7.96829e-06
-2.44939e-05
-4.81382e-06
-2.32929e-05
-1.96971e-06
-2.07704e-05
4.80671e-07
-1.75109e-05
2.48712e-06
-1.39857e-05
4.07553e-06
-1.06131e-05
5.29983e-06
-7.61446e-06
6.21252e-06
-4.98905e-06
6.84402e-06
-2.62078e-06
7.20549e-06
-3.84744e-07
7.30512e-06
1.80197e-06
7.16168e-06
4.00138e-06
6.804e-06
6.2651e-06
6.26758e-06
8.64699e-06
5.58349e-06
1.11995e-05
4.7525e-06
1.39248e-05
3.69018e-06
1.665e-05
2.08741e-06
1.87666e-05
1.92118e-05
-4.58997e-07
9.31548e-05
-1.01747e-05
3.52955e-05
-1.52892e-05
4.6432e-06
-1.66489e-05
-1.20306e-05
-1.5787e-05
-2.13562e-05
-1.38417e-05
-2.5771e-05
-1.1467e-05
-2.68685e-05
-9.00027e-06
-2.57597e-05
-6.70884e-06
-2.30618e-05
-4.67926e-06
-1.95405e-05
-2.96754e-06
-1.56974e-05
-1.59653e-06
-1.19841e-05
-5.29314e-07
-8.68168e-06
2.96225e-07
-5.81459e-06
9.131e-07
-3.23765e-06
1.33328e-06
-8.04926e-07
1.56542e-06
1.56983e-06
1.63228e-06
3.93453e-06
1.5654e-06
6.33198e-06
1.40564e-06
8.80675e-06
1.20448e-06
1.14006e-05
1.02845e-06
1.41008e-05
9.09489e-07
1.6769e-05
6.15409e-07
1.90607e-05
1.98272e-05
2.17733e-06
9.97551e-05
-6.83692e-06
4.43097e-05
-1.29841e-05
1.07904e-05
-1.58683e-05
-9.14647e-06
-1.64773e-05
-2.07472e-05
-1.57438e-05
-2.65044e-05
-1.44505e-05
-2.81619e-05
-1.28058e-05
-2.74043e-05
-1.10993e-05
-2.47683e-05
-9.45078e-06
-2.1189e-05
-7.97342e-06
-1.71748e-05
-6.76518e-06
-1.31924e-05
-5.83857e-06
-9.60829e-06
-5.13685e-06
-6.51631e-06
-4.59774e-06
-3.77676e-06
-4.1878e-06
-1.21487e-06
-3.89115e-06
1.27318e-06
-3.68229e-06
3.72567e-06
-3.52017e-06
6.16986e-06
-3.34959e-06
8.63616e-06
-3.09606e-06
1.11471e-05
-2.64452e-06
1.36493e-05
-1.80037e-06
1.59248e-05
-5.17856e-07
1.77781e-05
1.93093e-05
4.64421e-06
0.000105022
-3.67877e-06
5.26327e-05
-1.05074e-05
1.7619e-05
-1.48441e-05
-4.80979e-06
-1.70302e-05
-1.8561e-05
-1.76753e-05
-2.58593e-05
-1.75248e-05
-2.83124e-05
-1.68323e-05
-2.80969e-05
-1.58588e-05
-2.57418e-05
-1.46528e-05
-2.2395e-05
-1.33741e-05
-1.84535e-05
-1.22184e-05
-1.4348e-05
-1.13184e-05
-1.05083e-05
-1.06813e-05
-7.15342e-06
-1.02257e-05
-4.23239e-06
-9.86894e-06
-1.57162e-06
-9.56537e-06
9.69612e-07
-9.28344e-06
3.44374e-06
-8.97317e-06
5.85958e-06
-8.5511e-06
8.21409e-06
-7.87246e-06
1.04685e-05
-6.70455e-06
1.24813e-05
-4.60147e-06
1.38217e-05
-3.16554e-07
1.34932e-05
1.10627e-05
7.92997e-06
6.67516e-06
0.000109173
-7.38872e-07
6.00467e-05
-7.68637e-06
2.45665e-05
-1.29777e-05
4.81546e-07
-1.65008e-05
-1.5038e-05
-1.85939e-05
-2.37662e-05
-1.96519e-05
-2.72544e-05
-2.01852e-05
-2.75636e-05
-2.01673e-05
-2.57597e-05
-1.96414e-05
-2.29209e-05
-1.87442e-05
-1.93507e-05
-1.76955e-05
-1.53967e-05
-1.67449e-05
-1.14589e-05
-1.60467e-05
-7.85161e-06
-1.55994e-05
-4.67972e-06
-1.5301e-05
-1.86997e-06
-1.50412e-05
7.09778e-07
-1.47392e-05
3.14178e-06
-1.43201e-05
5.44042e-06
-1.36583e-05
7.55234e-06
-1.2556e-05
9.36609e-06
-1.07681e-05
1.06935e-05
-8.30666e-06
1.13603e-05
-6.36261e-06
1.15492e-05
1.30905e-05
-8.39037e-06
8.41699e-06
0.000112563
1.75035e-06
6.67134e-05
-5.16732e-06
3.14842e-05
-1.11076e-05
6.4218e-06
-1.57084e-05
-1.04372e-05
-1.9066e-05
-2.04085e-05
-2.14062e-05
-2.49142e-05
-2.31609e-05
-2.58089e-05
-2.42331e-05
-2.46875e-05
-2.46633e-05
-2.24907e-05
-2.44731e-05
-1.95409e-05
-2.37941e-05
-1.60757e-05
-2.28723e-05
-1.23806e-05
-2.19709e-05
-8.75302e-06
-2.12503e-05
-5.40034e-06
-2.07223e-05
-2.39801e-06
-2.02963e-05
2.83811e-07
-1.98644e-05
2.70987e-06
-1.9359e-05
4.93502e-06
-1.87739e-05
6.96721e-06
-1.82613e-05
8.85347e-06
-1.83251e-05
1.07573e-05
-2.00565e-05
1.30917e-05
-2.49894e-05
1.6482e-05
2.16516e-05
-3.35504e-05
9.91238e-06
0.0001154
3.86415e-06
7.27616e-05
-2.9625e-06
3.83108e-05
-9.35214e-06
1.28114e-05
-1.48106e-05
-4.97865e-06
-1.92265e-05
-1.59927e-05
-2.27473e-05
-2.13933e-05
-2.55909e-05
-2.29653e-05
-2.78096e-05
-2.24689e-05
-2.93932e-05
-2.09071e-05
-3.03054e-05
-1.86288e-05
-3.05496e-05
-1.58314e-05
-3.02381e-05
-1.26921e-05
-2.95869e-05
-9.40427e-06
-2.88424e-05
-6.14477e-06
-2.82094e-05
-3.03108e-06
-2.78096e-05
-1.15987e-07
-2.77173e-05
2.61763e-06
-2.80176e-05
5.23531e-06
-2.89201e-05
7.86972e-06
-3.07717e-05
1.0705e-05
-3.39707e-05
1.39563e-05
-3.85653e-05
1.76864e-05
-4.38302e-05
2.17469e-05
2.55925e-05
-4.77711e-05
1.12451e-05
0.00011787
5.69357e-06
7.83131e-05
-9.9895e-07
4.50034e-05
-7.67206e-06
1.94845e-05
-1.3761e-05
1.11024e-06
-1.9003e-05
-1.07507e-05
-2.3424e-05
-1.69723e-05
-2.71954e-05
-1.91939e-05
-3.04269e-05
-1.92374e-05
-3.31275e-05
-1.82065e-05
-3.52941e-05
-1.64622e-05
-3.6899e-05
-1.42265e-05
-3.79442e-05
-1.16469e-05
-3.85248e-05
-8.82365e-06
-3.88098e-05
-5.85973e-06
-3.90347e-05
-2.80623e-06
-3.94428e-05
2.92113e-07
-4.02233e-05
3.39816e-06
-4.15071e-05
6.51905e-06
-4.33764e-05
9.73903e-06
-4.57618e-05
1.30905e-05
-4.83027e-05
1.64972e-05
-5.02756e-05
1.96592e-05
-5.08081e-05
2.22794e-05
2.42467e-05
-4.94623e-05
1.25992e-05
0.000120126
7.41447e-06
8.34978e-05
8.75369e-07
5.15425e-05
-5.94003e-06
2.62999e-05
-1.24289e-05
7.59913e-06
-1.8234e-05
-4.94563e-06
-2.32661e-05
-1.19401e-05
-2.76687e-05
-1.47914e-05
-3.16031e-05
-1.53029e-05
-3.5114e-05
-1.46957e-05
-3.82063e-05
-1.33699e-05
-4.08995e-05
-1.15333e-05
-4.31766e-05
-9.36979e-06
-4.5055e-05
-6.94529e-06
-4.66195e-05
-4.29521e-06
-4.79579e-05
-1.4679e-06
-4.9151e-05
1.48528e-06
-5.02595e-05
4.50667e-06
-5.12914e-05
7.55091e-06
-5.21527e-05
1.06003e-05
-5.26296e-05
1.35674e-05
-5.23946e-05
1.62622e-05
-5.13375e-05
1.86021e-05
-4.9462e-05
2.04039e-05
2.15151e-05
-4.67304e-05
1.40917e-05
0.000122266
9.19509e-06
8.83944e-05
2.82833e-06
5.79092e-05
-4.01666e-06
3.31449e-05
-1.07139e-05
1.42964e-05
-1.68425e-05
1.18297e-06
-2.21989e-05
-6.58378e-06
-2.68802e-05
-1.011e-05
-3.11231e-05
-1.106e-05
-3.50447e-05
-1.07741e-05
-3.85475e-05
-9.86714e-06
-4.1614e-05
-8.46674e-06
-4.42852e-05
-6.6986e-06
-4.65729e-05
-4.65755e-06
-4.84602e-05
-2.40792e-06
-4.99437e-05
1.55392e-08
-5.1035e-05
2.57662e-06
-5.17439e-05
5.21557e-06
-5.20851e-05
7.89205e-06
-5.2002e-05
1.05172e-05
-5.13433e-05
1.29087e-05
-5.00277e-05
1.49467e-05
-4.80513e-05
1.66257e-05
-4.55335e-05
1.7886e-05
1.87259e-05
-4.27443e-05
1.5867e-05
0.000124339
1.12019e-05
9.30595e-05
5.01316e-06
6.40979e-05
-1.78624e-06
3.99443e-05
-8.56731e-06
2.10774e-05
-1.48557e-05
7.47133e-06
-2.03594e-05
-1.08009e-06
-2.50834e-05
-5.38599e-06
-2.92724e-05
-6.87098e-06
-3.31493e-05
-6.89718e-06
-3.67182e-05
-6.29825e-06
-3.98749e-05
-5.31001e-06
-4.25786e-05
-3.99495e-06
-4.48241e-05
-2.41205e-06
-4.66232e-05
-6.088e-07
-4.798e-05
1.37237e-06
-4.88725e-05
3.4691e-06
-4.92781e-05
5.62117e-06
-4.91475e-05
7.76143e-06
-4.8418e-05
9.78771e-06
-4.71193e-05
1.161e-05
-4.53632e-05
1.31906e-05
-4.32459e-05
1.45084e-05
-4.09093e-05
1.55494e-05
1.63415e-05
-3.85249e-05
1.80625e-05
0.000126354
1.35952e-05
9.75268e-05
7.58253e-06
7.01106e-05
8.69928e-07
4.66569e-05
-5.92728e-06
2.78747e-05
-1.23066e-05
1.38506e-05
-1.79017e-05
4.51508e-06
-2.26094e-05
-6.78346e-07
-2.65912e-05
-2.88915e-06
-3.01039e-05
-3.38443e-06
-3.33426e-05
-3.05956e-06
-3.62706e-05
-2.382e-06
-3.88048e-05
-1.46076e-06
-4.0892e-05
-3.24851e-07
-4.25092e-05
1.00842e-06
-4.36384e-05
2.50153e-06
-4.42644e-05
4.09508e-06
-4.4373e-05
5.72975e-06
-4.3956e-05
7.34444e-06
-4.30455e-05
8.87723e-06
-4.17205e-05
1.0285e-05
-4.00768e-05
1.15469e-05
-3.82162e-05
1.26478e-05
-3.62455e-05
1.35787e-05
1.43443e-05
-3.42483e-05
2.08033e-05
0.000128286
1.65254e-05
0.000101805
1.06871e-05
7.5949e-05
4.08067e-06
5.32634e-05
-2.69603e-06
3.46514e-05
-9.14676e-06
2.03013e-05
-1.48482e-05
1.02166e-05
-1.96002e-05
4.07365e-06
-2.34806e-05
9.91224e-07
-2.66977e-05
-1.67366e-07
-2.94611e-05
-2.96109e-07
-3.19099e-05
6.67841e-08
-3.40432e-05
6.72586e-07
-3.58117e-05
1.44358e-06
-3.71762e-05
2.37289e-06
-3.81046e-05
3.42996e-06
-3.85788e-05
4.56933e-06
-3.85962e-05
5.74708e-06
-3.81747e-05
6.92301e-06
-3.73649e-05
8.06738e-06
-3.6238e-05
9.15815e-06
-3.48678e-05
1.01767e-05
-3.33256e-05
1.11056e-05
-3.16756e-05
1.19288e-05
1.26348e-05
-2.99662e-05
2.42012e-05
0.000130078
2.01336e-05
0.000105872
1.44804e-05
8.16022e-05
7.99165e-06
5.97521e-05
1.25458e-06
4.13884e-05
-5.25578e-06
2.68117e-05
-1.11019e-05
1.60627e-05
-1.5998e-05
8.96971e-06
-1.99296e-05
4.92281e-06
-2.30717e-05
2.9748e-06
-2.56158e-05
2.24791e-06
-2.7715e-05
2.16607e-06
-2.94538e-05
2.41132e-06
-3.08682e-05
2.85802e-06
-3.19474e-05
3.45206e-06
-3.26699e-05
4.15252e-06
-3.3027e-05
4.9264e-06
-3.30242e-05
5.74426e-06
-3.26791e-05
6.5779e-06
-3.20246e-05
7.41291e-06
-3.11034e-05
8.23698e-06
-2.9964e-05
9.0373e-06
-2.86574e-05
9.79899e-06
-2.72299e-05
1.05012e-05
1.11261e-05
-2.57212e-05
2.835e-05
0.00013164
2.45472e-05
0.000109675
1.91127e-05
8.70367e-05
1.27612e-05
6.61036e-05
6.08013e-06
4.80694e-05
-4.70849e-07
3.33627e-05
-6.47511e-06
2.2067e-05
-1.15939e-05
1.40885e-05
-1.57111e-05
9.04e-06
-1.8938e-05
6.20173e-06
-2.14685e-05
4.77844e-06
-2.34659e-05
4.16342e-06
-2.50471e-05
3.99255e-06
-2.62739e-05
4.08483e-06
-2.71694e-05
4.34756e-06
-2.77442e-05
4.72733e-06
-2.80084e-05
5.19057e-06
-2.79765e-05
5.71233e-06
-2.76683e-05
6.26976e-06
-2.71061e-05
6.85073e-06
-2.63128e-05
7.44359e-06
-2.53178e-05
8.04239e-06
-2.41586e-05
8.63974e-06
-2.28731e-05
9.2157e-06
9.75161e-06
-2.14986e-05
3.33165e-05
0.000132851
2.98715e-05
0.00011312
2.47224e-05
9.21859e-05
1.85513e-05
7.22748e-05
1.195e-05
5.46708e-05
5.38148e-06
3.99311e-05
-7.63973e-07
2.82124e-05
-6.14281e-06
1.94673e-05
-1.05541e-05
1.34513e-05
-1.40153e-05
9.6629e-06
-1.66867e-05
7.44981e-06
-1.87467e-05
6.2234e-06
-2.03326e-05
5.57847e-06
-2.15274e-05
5.27966e-06
-2.23775e-05
5.19769e-06
-2.29114e-05
5.26118e-06
-2.31499e-05
5.4291e-06
-2.31133e-05
5.6757e-06
-2.28266e-05
5.98305e-06
-2.23153e-05
6.3395e-06
-2.16019e-05
6.73015e-06
-2.07047e-05
7.14522e-06
-1.96474e-05
7.58246e-06
-1.84624e-05
8.03062e-06
8.47499e-06
-1.71857e-05
3.91278e-05
0.000133565
3.6174e-05
0.000116074
3.14203e-05
9.69396e-05
2.55102e-05
7.81849e-05
1.90404e-05
6.11405e-05
1.24883e-05
4.64833e-05
6.2367e-06
3.4464e-05
6.11386e-07
2.50926e-05
-4.14813e-06
1.82108e-05
-7.96426e-06
1.3479e-05
-1.09245e-05
1.041e-05
-1.3188e-05
8.48695e-06
-1.49051e-05
7.29552e-06
-1.61824e-05
6.55701e-06
-1.70875e-05
6.10276e-06
-1.76632e-05
5.83689e-06
-1.79401e-05
5.706e-06
-1.7945e-05
5.68053e-06
-1.77052e-05
5.74331e-06
-1.72478e-05
5.8821e-06
-1.66013e-05
6.08368e-06
-1.57908e-05
6.33465e-06
-1.48337e-05
6.6254e-06
-1.37495e-05
6.94644e-06
7.29251e-06
-1.25671e-05
4.5757e-05
0.000133614
4.34657e-05
0.000118365
3.92664e-05
0.000101139
3.37482e-05
8.37031e-05
2.75067e-05
6.73821e-05
2.10382e-05
5.29518e-05
1.47358e-05
4.07664e-05
8.91668e-06
3.09118e-05
3.8272e-06
2.33003e-05
-3.95473e-07
1.77017e-05
-3.75261e-06
1.37672e-05
-6.34914e-06
1.10835e-05
-8.32322e-06
9.2696e-06
-9.79459e-06
8.02838e-06
-1.0849e-05
7.15718e-06
-1.15447e-05
6.53261e-06
-1.1923e-05
6.08425e-06
-1.20181e-05
5.77569e-06
-1.1863e-05
5.58819e-06
-1.14902e-05
5.50924e-06
-1.09325e-05
5.52601e-06
-1.02196e-05
5.62173e-06
-9.37267e-06
5.77851e-06
-8.40817e-06
5.98194e-06
6.22592e-06
-7.34159e-06
5.31092e-05
0.000132828
5.16791e-05
0.000119795
4.82411e-05
0.000104577
4.33042e-05
8.86399e-05
3.74464e-05
7.32399e-05
3.11811e-05
5.9217e-05
2.49222e-05
4.70253e-05
1.89949e-05
3.68391e-05
1.36492e-05
2.8646e-05
9.05056e-06
2.23003e-05
5.26251e-06
1.75552e-05
2.24699e-06
1.4099e-05
-9.32697e-08
1.16099e-05
-1.86863e-06
9.80374e-06
-3.17299e-06
8.46155e-06
-4.07559e-06
7.4352e-06
-4.62799e-06
6.63665e-06
-4.87485e-06
6.02255e-06
-4.85889e-06
5.57224e-06
-4.62042e-06
5.27077e-06
-4.19841e-06
5.10399e-06
-3.62533e-06
5.04864e-06
-2.92175e-06
5.07493e-06
-2.1027e-06
5.1629e-06
5.30208e-06
-1.17886e-06
6.10143e-05
0.000131055
6.06499e-05
0.00012016
5.82147e-05
0.000107012
5.41054e-05
9.27492e-05
4.8854e-05
7.84913e-05
4.29778e-05
6.50933e-05
3.69133e-05
5.30897e-05
3.10067e-05
4.27457e-05
2.55216e-05
3.41311e-05
2.06431e-05
2.71788e-05
1.64735e-05
2.17248e-05
1.30306e-05
1.75419e-05
1.02667e-05
1.43738e-05
8.10065e-06
1.19698e-05
6.44884e-06
1.01134e-05
5.24251e-06
8.64154e-06
4.42585e-06
7.45331e-06
3.94327e-06
6.50513e-06
3.73669e-06
5.77881e-06
3.75805e-06
5.24942e-06
3.96784e-06
4.8942e-06
4.33716e-06
4.67932e-06
4.84816e-06
4.56393e-06
5.48838e-06
4.52268e-06
4.54264e-06
6.24782e-06
6.92321e-05
0.000128184
7.01119e-05
0.00011928
6.8926e-05
0.000108198
6.59298e-05
9.57453e-05
6.15712e-05
8.285e-05
5.63436e-05
7.03208e-05
5.06965e-05
5.87368e-05
4.49999e-05
4.84423e-05
3.95409e-05
3.95902e-05
3.45276e-05
3.21921e-05
3.00919e-05
2.61605e-05
2.62922e-05
2.13416e-05
2.31236e-05
1.75424e-05
2.05389e-05
1.45545e-05
1.84784e-05
1.21738e-05