/*--------------------------------*- C++ -*----------------------------------*\
| =========                 |                                                 |
| \\      /  F ield         | OpenFOAM: The Open Source CFD Toolbox           |
|  \\    /   O peration     | Version:  v2012                                 |
|   \\  /    A nd           | Website:  www.openfoam.com                      |
|    \\/     M anipulation  |                                                 |
\*---------------------------------------------------------------------------*/
FoamFile
{
    version     2.0;
    format      ascii;
    class       volVectorField;
    location    "582";
    object      U;
}
// * * * * * * * * * * * * * * * * * * * * * * * * * * * * * * * * * * * * * //

dimensions      [0 1 -1 0 0 0 0];


internalField   nonuniform List<vector> 
6598
(
(9.47297e-05 -0.999689 0)
(0.000241963 -1.00004 0)
(0.000161583 -1.00003 0)
(8.1963e-05 -1.00002 0)
(2.52266e-05 -1.00002 0)
(-2.48814e-05 -1.00002 0)
(-8.16653e-05 -1.00002 0)
(-0.00016138 -1.00003 0)
(-0.000241908 -1.00004 0)
(-9.47071e-05 -0.999689 0)
(0.000367526 -0.999335 0)
(0.000447645 -1.00017 0)
(0.000333674 -1.00017 0)
(0.000196116 -1.00014 0)
(6.43833e-05 -1.00012 0)
(-6.33363e-05 -1.00012 0)
(-0.000195214 -1.00014 0)
(-0.000333013 -1.00017 0)
(-0.000447568 -1.00017 0)
(-0.000367466 -0.999335 0)
(0.00045106 -0.998815 0)
(0.00049818 -1.00021 0)
(0.000401311 -1.00034 0)
(0.000254723 -1.00034 0)
(8.6639e-05 -1.00032 0)
(-8.46592e-05 -1.00032 0)
(-0.000252939 -1.00034 0)
(-0.000399884 -1.00034 0)
(-0.000496905 -1.00021 0)
(-0.000450698 -0.998816 0)
(0.000458397 -0.998228 0)
(0.000492264 -1.0002 0)
(0.00041481 -1.0005 0)
(0.000275584 -1.00055 0)
(9.57604e-05 -1.00055 0)
(-9.26049e-05 -1.00055 0)
(-0.000272762 -1.00055 0)
(-0.000412851 -1.0005 0)
(-0.000490665 -1.0002 0)
(-0.000457692 -0.998229 0)
(0.000444102 -0.997661 0)
(0.000476571 -1.00016 0)
(0.000409933 -1.00064 0)
(0.000277146 -1.00075 0)
(9.80887e-05 -1.00078 0)
(-9.31053e-05 -1.00078 0)
(-0.00027274 -1.00076 0)
(-0.000406433 -1.00064 0)
(-0.000474183 -1.00017 0)
(-0.000442976 -0.997665 0)
(0.000422719 -0.997134 0)
(0.000451676 -1.00013 0)
(0.000400519 -1.00076 0)
(0.000271395 -1.00095 0)
(9.75533e-05 -1.00101 0)
(-8.97325e-05 -1.00101 0)
(-0.000264351 -1.00096 0)
(-0.000394644 -1.00076 0)
(-0.000448078 -1.00013 0)
(-0.000420942 -0.997139 0)
(0.000400505 -0.996637 0)
(0.000426792 -1.00009 0)
(0.000383788 -1.00088 0)
(0.000261426 -1.00114 0)
(9.55806e-05 -1.00123 0)
(-8.37154e-05 -1.00123 0)
(-0.000250741 -1.00115 0)
(-0.000375262 -1.00088 0)
(-0.00042117 -1.0001 0)
(-0.000397774 -0.996647 0)
(0.000379851 -0.996166 0)
(0.000404779 -1.00006 0)
(0.000365239 -1.00099 0)
(0.000250781 -1.00132 0)
(9.38633e-05 -1.00144 0)
(-7.59347e-05 -1.00144 0)
(-0.000234604 -1.00133 0)
(-0.00035237 -1.001 0)
(-0.00039622 -1.00007 0)
(-0.000375808 -0.996182 0)
(0.000361744 -0.995717 0)
(0.000386218 -1.00003 0)
(0.000350001 -1.00109 0)
(0.000242269 -1.00149 0)
(9.38933e-05 -1.00164 0)
(-6.6812e-05 -1.00164 0)
(-0.000217805 -1.0015 0)
(-0.000330545 -1.00111 0)
(-0.000373317 -1.00005 0)
(-0.000355691 -0.995742 0)
(0.000346628 -0.995286 0)
(0.0003717 -0.999993 0)
(0.000338952 -1.00118 0)
(0.000237174 -1.00165 0)
(9.67014e-05 -1.00183 0)
(-5.59065e-05 -1.00183 0)
(-0.000200334 -1.00167 0)
(-0.000309656 -1.00121 0)
(-0.000352231 -1.00003 0)
(-0.000337562 -0.995324 0)
(0.000334649 -0.994868 0)
(0.000361671 -0.999961 0)
(0.000332791 -1.00128 0)
(0.000236615 -1.0018 0)
(0.000103457 -1.00201 0)
(-4.21353e-05 -1.00201 0)
(-0.00018127 -1.00182 0)
(-0.000288655 -1.00131 0)
(-0.000332272 -1.00001 0)
(-0.000321101 -0.994927 0)
(0.000325931 -0.994461 0)
(0.000356792 -0.999926 0)
(0.000332617 -1.00136 0)
(0.000242044 -1.00194 0)
(0.000115833 -1.00218 0)
(-2.37733e-05 -1.00219 0)
(-0.000159013 -1.00198 0)
(-0.000266032 -1.00142 0)
(-0.000312259 -1 0)
(-0.000305682 -0.99455 0)
(0.000320781 -0.994057 0)
(0.000358053 -0.999887 0)
(0.000340273 -1.00144 0)
(0.000255708 -1.00208 0)
(0.000136416 -1.00234 0)
(1.8341e-06 -1.00236 0)
(-0.000131099 -1.00213 0)
(-0.000239679 -1.00152 0)
(-0.000290598 -0.999999 0)
(-0.000290496 -0.994193 0)
(0.000319477 -0.993651 0)
(0.000365593 -0.99984 0)
(0.000355978 -1.0015 0)
(0.000281222 -1.0022 0)
(0.000168945 -1.00249 0)
(3.86113e-05 -1.00252 0)
(-9.39345e-05 -1.00229 0)
(-0.000206687 -1.00164 0)
(-0.000265238 -1.00001 0)
(-0.000274577 -0.993858 0)
(0.000322957 -0.993237 0)
(0.000382539 -0.99978 0)
(0.000386273 -1.00156 0)
(0.000323185 -1.00231 0)
(0.000219255 -1.00264 0)
(9.24701e-05 -1.00269 0)
(-4.22279e-05 -1.00244 0)
(-0.000162946 -1.00176 0)
(-0.000233482 -1.00004 0)
(-0.000256825 -0.993549 0)
(0.000332533 -0.992804 0)
(0.000412696 -0.999701 0)
(0.000435573 -1.00159 0)
(0.00038864 -1.00241 0)
(0.000293405 -1.00278 0)
(0.000172123 -1.00285 0)
(3.38952e-05 -1.00261 0)
(-0.000102603 -1.0019 0)
(-0.000192105 -1.00008 0)
(-0.000236162 -0.993271 0)
(0.000350068 -0.992339 0)
(0.000461323 -0.999592 0)
(0.000512045 -1.0016 0)
(0.000488885 -1.00249 0)
(0.000409433 -1.00291 0)
(0.00029167 -1.00301 0)
(0.000143359 -1.00279 0)
(-1.68896e-05 -1.00206 0)
(-0.000136565 -1.00017 0)
(-0.000212917 -0.993034 0)
(0.00037798 -0.991824 0)
(0.000535245 -0.999437 0)
(0.000627255 -1.00157 0)
(0.000638586 -1.00254 0)
(0.000586567 -1.00302 0)
(0.000473277 -1.00318 0)
(0.000306138 -1.003 0)
(0.00010466 -1.00228 0)
(-7.28622e-05 -1.00031 0)
(-0.000193891 -0.992833 0)
(0.000419594 -0.991233 0)
(0.000643484 -0.999215 0)
(0.000796763 -1.00149 0)
(0.000862302 -1.00255 0)
(0.000850375 -1.00311 0)
(0.000755492 -1.00335 0)
(0.000572221 -1.00324 0)
(0.000307276 -1.00256 0)
(4.74873e-05 -1.00051 0)
(-0.000103556 -0.992668 0)
(0.000477109 -0.990533 0)
(0.000795767 -0.998896 0)
(0.00103832 -1.00131 0)
(0.0011866 -1.00248 0)
(0.00124188 -1.00315 0)
(0.00118791 -1.00352 0)
(0.000978615 -1.00355 0)
(0.000581905 -1.00303 0)
(-9.17061e-05 -1.0013 0)
(-0.000473081 -0.995181 0)
(0.000558811 -0.989704 0)
(0.00100031 -0.998446 0)
(0.00136819 -1.00101 0)
(0.00164084 -1.00229 0)
(0.00181848 -1.0031 0)
(0.00189675 -1.00361 0)
(0.00183174 -1.00389 0)
(0.0017564 -1.00364 0)
(0.00253106 -1.0014 0)
(0.00906393 -0.98211 0)
(0.000665225 -0.988687 0)
(0.0012625 -0.997825 0)
(0.0017948 -1.00054 0)
(0.00223465 -1.00194 0)
(0.00258659 -1.00285 0)
(0.0028644 -1.00349 0)
(0.0030637 -1.0038 0)
(0.00305976 -1.0035 0)
(0.00348025 -1.00013 0)
(0.0165636 -0.965945 0)
(0.000796591 -0.987433 0)
(0.00158459 -0.996977 0)
(0.0023215 -0.999837 0)
(0.00296778 -1.00135 0)
(0.00352856 -1.00237 0)
(0.0040284 -1.00308 0)
(0.00451907 -1.0034 0)
(0.00484192 -1.00273 0)
(0.00472146 -0.997935 0)
(0.0209912 -0.952563 0)
(0.00095254 -0.985892 0)
(0.00196623 -0.995855 0)
(0.00294711 -0.998864 0)
(0.00383827 -1.00048 0)
(0.00464663 -1.00159 0)
(0.00540108 -1.00237 0)
(0.00621201 -1.00263 0)
(0.00718539 -1.00138 0)
(0.00700373 -0.994353 0)
(0.0251004 -0.93749 0)
(0.00113401 -0.984011 0)
(0.00241007 -0.994408 0)
(0.00367527 -0.99757 0)
(0.00485082 -0.999285 0)
(0.00594934 -1.00047 0)
(0.00700201 -1.00128 0)
(0.00813291 -1.00141 0)
(0.00975858 -0.999379 0)
(0.00991627 -0.98934 0)
(0.0282906 -0.92018 0)
(0.00134247 -0.981739 0)
(0.00291999 -0.992587 0)
(0.00451107 -0.995907 0)
(0.00601006 -0.997722 0)
(0.00743731 -0.998978 0)
(0.00882825 -0.999785 0)
(0.0102974 -0.999694 0)
(0.0125186 -0.996731 0)
(0.0133936 -0.983193 0)
(0.0308417 -0.903011 0)
(0.00158276 -0.979027 0)
(0.0035031 -0.990344 0)
(0.00546207 -0.993827 0)
(0.00732511 -0.995741 0)
(0.0091204 -0.997056 0)
(0.0108913 -0.997828 0)
(0.0127388 -0.997443 0)
(0.015525 -0.9934 0)
(0.0173937 -0.976027 0)
(0.0334924 -0.886849 0)
(0.00186033 -0.975706 0)
(0.00417451 -0.987563 0)
(0.00655807 -0.991224 0)
(0.00884006 -0.993242 0)
(0.0110553 -0.994611 0)
(0.0132577 -0.995322 0)
(0.0155363 -0.994567 0)
(0.0188256 -0.989292 0)
(0.0219001 -0.96786 0)
(0.0359427 -0.871426 0)
(0.00217462 -0.971764 0)
(0.00494301 -0.984159 0)
(0.00781949 -0.988008 0)
(0.0105853 -0.990139 0)
(0.0132816 -0.991559 0)
(0.0159769 -0.992184 0)
(0.0187667 -0.990986 0)
(0.0225296 -0.98436 0)
(0.0268172 -0.958948 0)
(0.0396833 -0.857202 0)
(0.00253421 -0.967102 0)
(0.00582696 -0.980078 0)
(0.00924989 -0.984135 0)
(0.0125655 -0.98639 0)
(0.0158013 -0.987863 0)
(0.0190405 -0.988382 0)
(0.0224038 -0.986681 0)
(0.0266644 -0.978596 0)
(0.0318187 -0.94941 0)
(0.0442686 -0.843954 0)
(0.00294845 -0.961632 0)
(0.0068348 -0.975297 0)
(0.0108832 -0.979528 0)
(0.0148197 -0.981916 0)
(0.0186579 -0.983449 0)
(0.0224894 -0.983857 0)
(0.0264597 -0.981627 0)
(0.0312513 -0.972048 0)
(0.0370003 -0.939408 0)
(0.0487845 -0.832462 0)
(0.00341654 -0.955248 0)
(0.00797867 -0.96959 0)
(0.0127629 -0.974089 0)
(0.0173968 -0.976629 0)
(0.0219135 -0.97824 0)
(0.0264006 -0.978555 0)
(0.0310138 -0.975822 0)
(0.0363387 -0.964839 0)
(0.0427024 -0.929287 0)
(0.053357 -0.822861 0)
(0.00395267 -0.947822 0)
(0.00929614 -0.962897 0)
(0.0149221 -0.967699 0)
(0.0203545 -0.97042 0)
(0.0256484 -0.972137 0)
(0.030881 -0.972396 0)
(0.036209 -0.969221 0)
(0.042081 -0.956999 0)
(0.0491196 -0.91907 0)
(0.0584578 -0.815165 0)
(0.00456978 -0.939189 0)
(0.0108162 -0.955075 0)
(0.0174055 -0.960215 0)
(0.0237611 -0.963149 0)
(0.0299547 -0.96501 0)
(0.0360497 -0.965262 0)
(0.0421951 -0.961739 0)
(0.0487237 -0.948519 0)
(0.0562615 -0.909111 0)
(0.0644417 -0.809177 0)
(0.00527867 -0.929161 0)
(0.0125676 -0.945945 0)
(0.0202642 -0.951464 0)
(0.0276892 -0.954647 0)
(0.0349278 -0.956692 0)
(0.042029 -0.956995 0)
(0.049118 -0.953238 0)
(0.0564503 -0.939283 0)
(0.0643959 -0.899429 0)
(0.0716594 -0.804595 0)
(0.00608955 -0.917526 0)
(0.014578 -0.93531 0)
(0.0235473 -0.941252 0)
(0.0322071 -0.944719 0)
(0.0406576 -0.946986 0)
(0.0489346 -0.947404 0)
(0.0571278 -0.943551 0)
(0.0653965 -0.929254 0)
(0.0738013 -0.889904 0)
(0.0804509 -0.80106 0)
(0.00701135 -0.904056 0)
(0.0168714 -0.922948 0)
(0.0272965 -0.929363 0)
(0.0373731 -0.933144 0)
(0.0472206 -0.935668 0)
(0.0568638 -0.936265 0)
(0.0663498 -0.932473 0)
(0.0757231 -0.91826 0)
(0.0847395 -0.880298 0)
(0.0911349 -0.798146 0)
(0.00805069 -0.888499 0)
(0.0194656 -0.908618 0)
(0.0315424 -0.915561 0)
(0.0432299 -0.919681 0)
(0.0546727 -0.922491 0)
(0.0658872 -0.92333 0)
(0.0768756 -0.919762 0)
(0.0875623 -0.90605 0)
(0.0974269 -0.870267 0)
(0.103988 -0.795341 0)
(0.00921096 -0.870596 0)
(0.0223703 -0.892069 0)
(0.036302 -0.899596 0)
(0.0497998 -0.90408 0)
(0.0630411 -0.907195 0)
(0.0760392 -0.90833 0)
(0.0887525 -0.905141 0)
(0.100993 -0.892312 0)
(0.11201 -0.859366 0)
(0.119217 -0.79205 0)
(0.0104924 -0.850079 0)
(0.0255858 -0.873039 0)
(0.0415755 -0.881217 0)
(0.0570806 -0.886086 0)
(0.0723191 -0.889518 0)
(0.0873097 -0.890988 0)
(0.101973 -0.88831 0)
(0.116025 -0.876684 0)
(0.128543 -0.847075 0)
(0.136926 -0.787594 0)
(0.0118907 -0.826684 0)
(0.0291034 -0.851274 0)
(0.0473461 -0.86018 0)
(0.0650438 -0.865456 0)
(0.0824626 -0.86921 0)
(0.099638 -0.871037 0)
(0.116462 -0.868965 0)
(0.132583 -0.858773 0)
(0.146973 -0.832822 0)
(0.157086 -0.781227 0)
(0.0134166 -0.800156 0)
(0.0329065 -0.82653 0)
(0.053579 -0.836257 0)
(0.0736344 -0.841973 0)
(0.0933896 -0.846049 0)
(0.112912 -0.848238 0)
(0.13208 -0.846824 0)
(0.150503 -0.838194 0)
(0.167117 -0.816025 0)
(0.179503 -0.772166 0)
(0.0150717 -0.770246 0)
(0.0369778 -0.79862 0)
(0.0602276 -0.809255 0)
(0.0827757 -0.815453 0)
(0.104985 -0.819855 0)
(0.126971 -0.822399 0)
(0.148616 -0.82165 0)
(0.169525 -0.814604 0)
(0.188662 -0.796146 0)
(0.203799 -0.75965 0)
(0.0168359 -0.736694 0)
(0.0412986 -0.767364 0)
(0.0672405 -0.779019 0)
(0.0923773 -0.785764 0)
(0.11711 -0.790511 0)
(0.141618 -0.793397 0)
(0.165807 -0.793281 0)
(0.18931 -0.787744 0)
(0.211176 -0.772748 0)
(0.229424 -0.743021 0)
(0.0187003 -0.699289 0)
(0.0458481 -0.73261 0)
(0.0745647 -0.745445 0)
(0.102343 -0.752836 0)
(0.129612 -0.757973 0)
(0.156633 -0.761196 0)
(0.183353 -0.76166 0)
(0.209461 -0.75748 0)
(0.234136 -0.745558 0)
(0.255685 -0.721811 0)
(0.0206629 -0.657829 0)
(0.0506127 -0.694237 0)
(0.0821545 -0.708478 0)
(0.112581 -0.716666 0)
(0.14234 -0.722276 0)
(0.171791 -0.725858 0)
(0.200942 -0.726846 0)
(0.229559 -0.723829 0)
(0.256979 -0.714506 0)
(0.281818 -0.695815 0)
(0.0227301 -0.61211 0)
(0.0555945 -0.652148 0)
(0.0899807 -0.668116 0)
(0.123014 -0.677319 0)
(0.155155 -0.683546 0)
(0.186881 -0.687549 0)
(0.218277 -0.689024 0)
(0.2492 -0.686974 0)
(0.279156 -0.67975 0)
(0.307075 -0.665142 0)
(0.0249179 -0.561914 0)
(0.0608162 -0.606268 0)
(0.0980363 -0.624411 0)
(0.133585 -0.634938 0)
(0.167934 -0.64199 0)
(0.20171 -0.646528 0)
(0.235088 -0.648494 0)
(0.268024 -0.647244 0)
(0.300189 -0.641653 0)
(0.330802 -0.6302 0)
(0.0272568 -0.506983 0)
(0.0663247 -0.556535 0)
(0.106334 -0.577474 0)
(0.144245 -0.589741 0)
(0.180563 -0.597901 0)
(0.2161 -0.603146 0)
(0.251136 -0.605654 0)
(0.285725 -0.605086 0)
(0.31969 -0.600741 0)
(0.352501 -0.591632 0)
(0.0297837 -0.447003 0)
(0.0721857 -0.502924 0)
(0.114889 -0.527497 0)
(0.154932 -0.542037 0)
(0.192906 -0.551654 0)
(0.229855 -0.557822 0)
(0.266184 -0.560964 0)
(0.302035 -0.561017 0)
(0.337361 -0.557621 0)
(0.371837 -0.550209 0)
(0.0326191 -0.381552 0)
(0.0784776 -0.445423 0)
(0.12366 -0.474758 0)
(0.165495 -0.492226 0)
(0.204738 -0.503696 0)
(0.242707 -0.511024 0)
(0.279945 -0.51491 0)
(0.316673 -0.515561 0)
(0.352944 -0.512907 0)
(0.388584 -0.50671 0)
(0.0358749 -0.310219 0)
(0.0852014 -0.384399 0)
(0.132398 -0.419739 0)
(0.175567 -0.44085 0)
(0.215643 -0.454563 0)
(0.25422 -0.463254 0)
(0.291997 -0.46797 0)
(0.329262 -0.469198 0)
(0.366135 -0.467135 0)
(0.40254 -0.461808 0)
(0.0390127 -0.23258 0)
(0.092036 -0.320732 0)
(0.140547 -0.362942 0)
(0.184392 -0.388368 0)
(0.224815 -0.404742 0)
(0.263625 -0.414971 0)
(0.301649 -0.42055 0)
(0.339214 -0.422307 0)
(0.376469 -0.420703 0)
(0.41339 -0.415999 0)
(0.038389 -0.145979 0)
(0.095123 -0.255352 0)
(0.146134 -0.306325 0)
(0.190808 -0.33598 0)
(0.231144 -0.354851 0)
(0.269789 -0.366534 0)
(0.307843 -0.372896 0)
(0.345605 -0.375079 0)
(0.383189 -0.373798 0)
(0.420573 -0.369523 0)
(0.0292547 -0.0598535 0)
(0.0861569 -0.176472 0)
(0.142044 -0.244847 0)
(0.190283 -0.283095 0)
(0.231887 -0.30536 0)
(0.270767 -0.318342 0)
(0.30897 -0.325188 0)
(0.347047 -0.32755 0)
(0.385119 -0.326397 0)
(0.423145 -0.322365 0)
(0.0165244 -0.0040917 0)
(0.063845 -0.0975122 0)
(0.121282 -0.175522 0)
(0.174794 -0.225103 0)
(0.220773 -0.253741 0)
(0.262219 -0.269339 0)
(0.301946 -0.276909 0)
(0.341189 -0.279278 0)
(0.380367 -0.278009 0)
(0.419537 -0.274018 0)
(0.00649439 0.0297974 0)
(0.0383762 -0.0303283 0)
(0.0872275 -0.103644 0)
(0.140581 -0.159763 0)
(0.190776 -0.195703 0)
(0.237094 -0.216092 0)
(0.28093 -0.225946 0)
(0.323457 -0.229074 0)
(0.365342 -0.227958 0)
(0.406815 -0.224068 0)
(-0.00606807 0.0463218 0)
(0.0165927 0.0112594 0)
(0.0491896 -0.0438097 0)
(0.0919384 -0.0946504 0)
(0.13985 -0.131742 0)
(0.189277 -0.155334 0)
(0.23833 -0.168136 0)
(0.286391 -0.173323 0)
(0.333376 -0.173486 0)
(0.379362 -0.170411 0)
(-0.0199516 0.0447562 0)
(-0.0131954 0.0242757 0)
(0.00734707 -0.00662332 0)
(0.0357864 -0.0421131 0)
(0.074496 -0.0712785 0)
(0.121388 -0.0914057 0)
(0.173251 -0.102918 0)
(0.22682 -0.10841 0)
(0.280048 -0.109706 0)
(0.332217 -0.107643 0)
(-0.0248977 0.0128093 0)
(-0.0456012 0.00267902 0)
(-0.0541069 -0.0133066 0)
(-0.034315 -0.0262859 0)
(-0.0045686 -0.0380622 0)
(0.0368269 -0.0452697 0)
(0.086896 -0.0486843 0)
(0.142868 -0.0515724 0)
(0.205556 -0.0533715 0)
(0.265617 -0.0526793 0)
(-0.0405185 -0.147357 0)
(-0.115011 0.0219311 0)
(-0.0887001 0.0284189 0)
(-0.0642238 0.0295731 0)
(-0.0357948 0.0313961 0)
(-0.00879684 0.0316716 0)
(0.017971 0.0296108 0)
(0.0433361 0.026696 0)
(0.0680226 0.024131 0)
(0.0898222 0.0211189 0)
(0.106615 0.0173599 0)
(0.119784 0.0135557 0)
(0.129391 0.00993548 0)
(0.135538 0.00705007 0)
(0.138572 0.00452107 0)
(0.138652 0.00176902 0)
(0.135767 -0.00110511 0)
(0.129718 -0.00421951 0)
(0.120224 -0.00740546 0)
(0.10698 -0.0108614 0)
(0.0896908 -0.0143913 0)
(0.06859 -0.0173387 0)
(0.0438885 -0.0178699 0)
(0.0178264 -0.0138313 0)
(0.00291177 -0.00672392 0)
(-0.0246597 -0.216699 0)
(-0.070407 0.00410573 0)
(-0.0717203 0.0358036 0)
(-0.0612753 0.0457682 0)
(-0.0429832 0.0512217 0)
(-0.0210406 0.0530196 0)
(0.00256912 0.0511556 0)
(0.026027 0.0469476 0)
(0.0471615 0.0412872 0)
(0.0650073 0.0344584 0)
(0.0796219 0.027191 0)
(0.0911645 0.0202275 0)
(0.0997484 0.0137116 0)
(0.105537 0.00775638 0)
(0.108785 0.00227335 0)
(0.109866 -0.00293857 0)
(0.109065 -0.00811696 0)
(0.10638 -0.0135714 0)
(0.101669 -0.0195771 0)
(0.0946812 -0.0262407 0)
(0.085069 -0.0333458 0)
(0.0722478 -0.0400204 0)
(0.0564674 -0.0438263 0)
(0.0340796 -0.0404235 0)
(0.0121667 -0.0279741 0)
(-0.00476265 -0.28897 0)
(-0.053869 -0.0245387 0)
(-0.0647465 0.0369688 0)
(-0.0615323 0.0598527 0)
(-0.0489278 0.0722377 0)
(-0.0316542 0.0777789 0)
(-0.0120581 0.0781072 0)
(0.00827799 0.0736613 0)
(0.0270345 0.0653578 0)
(0.0431711 0.0550082 0)
(0.0561809 0.0441138 0)
(0.0659765 0.0334334 0)
(0.073097 0.0234957 0)
(0.0780328 0.0146107 0)
(0.0809949 0.00659256 0)
(0.0821904 -0.00095412 0)
(0.081767 -0.00849756 0)
(0.0798228 -0.0164054 0)
(0.0764332 -0.0250037 0)
(0.0716201 -0.0345263 0)
(0.0653202 -0.0449325 0)
(0.0570554 -0.0554954 0)
(0.0466315 -0.0639642 0)
(0.0318807 -0.0652211 0)
(0.0144061 -0.0529169 0)
(0.00618428 -0.360891 0)
(-0.047995 -0.0606972 0)
(-0.0646322 0.0303091 0)
(-0.0660376 0.0690315 0)
(-0.0568592 0.0903296 0)
(-0.0423234 0.100381 0)
(-0.0259328 0.102199 0)
(-0.009352 0.097058 0)
(0.00618736 0.0863569 0)
(0.019785 0.0725154 0)
(0.0309002 0.0576252 0)
(0.0394645 0.0432692 0)
(0.0458534 0.0304355 0)
(0.0504931 0.0191551 0)
(0.0535567 0.00900117 0)
(0.0551926 -0.000525054 0)
(0.0554585 -0.0098543 0)
(0.0544105 -0.0193915 0)
(0.0521599 -0.029506 0)
(0.04883 -0.0405332 0)
(0.0445301 -0.0526782 0)
(0.0391293 -0.0656317 0)
(0.0323114 -0.0777243 0)
(0.0230767 -0.0840417 0)
(0.012623 -0.0818536 0)
(0.0154257 -0.421667 0)
(-0.0399496 -0.108798 0)
(-0.0631288 0.0147571 0)
(-0.0690482 0.0726242 0)
(-0.0644639 0.104056 0)
(-0.0530082 0.118798 0)
(-0.0396995 0.121415 0)
(-0.0262855 0.115205 0)
(-0.0138122 0.10262 0)
(-0.0028121 0.0863551 0)
(0.00641613 0.0688184 0)
(0.0138449 0.052094 0)
(0.0196478 0.037232 0)
(0.0240272 0.0241707 0)
(0.0271726 0.0123601 0)
(0.0292097 0.00121028 0)
(0.0301624 -0.00973949 0)
(0.0300486 -0.020804 0)
(0.0289844 -0.0322657 0)
(0.0271199 -0.0444353 0)
(0.0246318 -0.0576045 0)
(0.0216406 -0.0717535 0)
(0.0179863 -0.0857854 0)
(0.0126662 -0.0957643 0)
(0.00830854 -0.0974674 0)
(0.0249412 -0.470833 0)
(-0.0282828 -0.160787 0)
(-0.0552825 -0.00888597 0)
(-0.0673588 0.0691228 0)
(-0.068163 0.112178 0)
(-0.0616029 0.132363 0)
(-0.0524013 0.136648 0)
(-0.0423067 0.13013 0)
(-0.0322659 0.11607 0)
(-0.0233431 0.0979774 0)
(-0.0155541 0.0784449 0)
(-0.00915456 0.0597531 0)
(-0.00413614 0.0431495 0)
(-0.000261866 0.0286752 0)
(0.00269326 0.0156158 0)
(0.00484317 0.00325812 0)
(0.00620001 -0.00884778 0)
(0.00678954 -0.0209908 0)
(0.00674818 -0.0333896 0)
(0.00624279 -0.0463068 0)
(0.00548493 -0.0600096 0)
(0.00479828 -0.0745222 0)
(0.00448375 -0.089065 0)
(0.00303469 -0.101091 0)
(0.00466345 -0.104315 0)
(0.0316737 -0.509557 0)
(-0.0137712 -0.210868 0)
(-0.0429783 -0.0401421 0)
(-0.0612971 0.0576313 0)
(-0.0679643 0.112903 0)
(-0.0672508 0.139195 0)
(-0.0624875 0.146525 0)
(-0.0566026 0.141229 0)
(-0.0493182 0.126792 0)
(-0.0423946 0.107746 0)
(-0.0357862 0.086798 0)
(-0.030113 0.0663919 0)
(-0.025699 0.0482309 0)
(-0.0224226 0.0325488 0)
(-0.0199302 0.0185281 0)
(-0.0179705 0.00531397 0)
(-0.0164927 -0.00755771 0)
(-0.0154732 -0.0203444 0)
(-0.0147563 -0.0332178 0)
(-0.014135 -0.0463802 0)
(-0.0133496 -0.0600076 0)
(-0.0118342 -0.0739599 0)
(-0.00867679 -0.0874223 0)
(-0.00495995 -0.0989138 0)
(-0.000214006 -0.103181 0)
(0.0369684 -0.540623 0)
(0.000439368 -0.256486 0)
(-0.0300564 -0.074675 0)
(-0.0520254 0.038068 0)
(-0.0647465 0.105241 0)
(-0.0699623 0.139646 0)
(-0.0705408 0.149756 0)
(-0.0689453 0.147172 0)
(-0.065369 0.134021 0)
(-0.0609968 0.115429 0)
(-0.0558428 0.0941125 0)
(-0.050732 0.0725438 0)
(-0.0465112 0.0529002 0)
(-0.0435132 0.0359709 0)
(-0.0414646 0.0211326 0)
(-0.0399029 0.00738256 0)
(-0.0385802 -0.00589493 0)
(-0.037438 -0.018937 0)
(-0.0363147 -0.0318398 0)
(-0.0349512 -0.0447295 0)
(-0.0330011 -0.0576798 0)
(-0.0295418 -0.0703776 0)
(-0.0223094 -0.0815207 0)
(-0.00928552 -0.0887832 0)
(0.00744983 -0.0913977 0)
(0.0416059 -0.565003 0)
(0.0120378 -0.297758 0)
(-0.018068 -0.111187 0)
(-0.042361 0.0122138 0)
(-0.0597227 0.0898851 0)
(-0.0707626 0.132393 0)
(-0.07686 0.148082 0)
(-0.0797526 0.148517 0)
(-0.0809595 0.136852 0)
(-0.0797204 0.120275 0)
(-0.0767484 0.100125 0)
(-0.0725506 0.0784854 0)
(-0.0682753 0.0576758 0)
(-0.0648994 0.0392023 0)
(-0.0627152 0.0231818 0)
(-0.0613707 0.00882942 0)
(-0.0603352 -0.0046746 0)
(-0.0592524 -0.0177454 0)
(-0.0579076 -0.0304311 0)
(-0.0558634 -0.0425829 0)
(-0.052604 -0.0536574 0)
(-0.0474002 -0.0621643 0)
(-0.0388234 -0.0648384 0)
(-0.0262175 -0.0572188 0)
(-0.0170696 -0.0437043 0)
(0.0459253 -0.584454 0)
(0.0213756 -0.334595 0)
(-0.00750494 -0.147749 0)
(-0.033221 -0.0177165 0)
(-0.0541622 0.0680527 0)
(-0.070038 0.117505 0)
(-0.081413 0.138705 0)
(-0.08915 0.141552 0)
(-0.0950165 0.134123 0)
(-0.0979779 0.120834 0)
(-0.0984145 0.103496 0)
(-0.0964554 0.0836262 0)
(-0.0929242 0.063086 0)
(-0.0890223 0.0436236 0)
(-0.0857019 0.0261933 0)
(-0.0832718 0.0108333 0)
(-0.0814816 -0.00291411 0)
(-0.0798676 -0.0154611 0)
(-0.0780514 -0.0268735 0)
(-0.0758378 -0.0366981 0)
(-0.0734689 -0.044346 0)
(-0.0720331 -0.049657 0)
(-0.0740222 -0.0544441 0)
(-0.0847937 -0.0637834 0)
(-0.11243 -0.0893219 0)
(0.0499363 -0.600541 0)
(0.029059 -0.367844 0)
(0.00165938 -0.183936 0)
(-0.0249512 -0.0503071 0)
(-0.0486697 0.0413562 0)
(-0.0684719 0.0968711 0)
(-0.0842558 0.123055 0)
(-0.0968099 0.129576 0)
(-0.106834 0.125381 0)
(-0.114447 0.11559 0)
(-0.119479 0.101939 0)
(-0.121736 0.085466 0)
(-0.121391 0.0673388 0)
(-0.119193 0.0489206 0)
(-0.116159 0.0313994 0)
(-0.113204 0.0154463 0)
(-0.111007 0.00115898 0)
(-0.110058 -0.0117683 0)
(-0.110333 -0.0236689 0)
(-0.11244 -0.0351315 0)
(-0.117506 -0.0473259 0)
(-0.12715 -0.0621721 0)
(-0.142795 -0.081741 0)
(-0.163946 -0.106845 0)
(-0.184511 -0.134503 0)
(0.0538091 -0.614251 0)
(0.0356508 -0.398145 0)
(0.00967634 -0.219492 0)
(-0.0173988 -0.0848053 0)
(-0.0430429 0.0107244 0)
(-0.0658109 0.0711387 0)
(-0.0851196 0.101786 0)
(-0.101304 0.111803 0)
(-0.115108 0.11069 0)
(-0.126902 0.103968 0)
(-0.136638 0.0935547 0)
(-0.144179 0.0805203 0)
(-0.149405 0.0656183 0)
(-0.152485 0.0495694 0)
(-0.15398 0.0330679 0)
(-0.154685 0.0165922 0)
(-0.155684 0.000458438 0)
(-0.157919 -0.0153261 0)
(-0.16191 -0.0311385 0)
(-0.168087 -0.0477288 0)
(-0.176647 -0.0657693 0)
(-0.187162 -0.0853411 0)
(-0.196946 -0.10491 0)
(-0.203118 -0.122647 0)
(-0.200717 -0.136318 0)
(0.0583014 -0.626482 0)
(0.0418813 -0.426231 0)
(0.0171572 -0.254281 0)
(-0.010008 -0.120386 0)
(-0.0367831 -0.0225711 0)
(-0.061533 0.0417957 0)
(-0.0832612 0.0765967 0)
(-0.101914 0.0899227 0)
(-0.118259 0.0914231 0)
(-0.133057 0.0872065 0)
(-0.146231 0.0791159 0)
(-0.157702 0.0683804 0)
(-0.167657 0.0558597 0)
(-0.175851 0.041915 0)
(-0.182465 0.0268512 0)
(-0.18823 0.0108645 0)
(-0.193186 -0.00570875 0)
(-0.19769 -0.0224154 0)
(-0.201958 -0.0391975 0)
(-0.205819 -0.0562243 0)
(-0.208687 -0.0732738 0)
(-0.209971 -0.0894375 0)
(-0.206643 -0.103561 0)
(-0.201094 -0.114168 0)
(-0.192158 -0.120754 0)
(0.0636148 -0.637944 0)
(0.0484213 -0.452647 0)
(0.0247911 -0.288227 0)
(-0.00213493 -0.156419 0)
(-0.0294274 -0.05741 0)
(-0.0553133 0.0102043 0)
(-0.0783966 0.0490199 0)
(-0.0982964 0.0657021 0)
(-0.115617 0.0695232 0)
(-0.131812 0.0672536 0)
(-0.146864 0.0613771 0)
(-0.159848 0.0528272 0)
(-0.171174 0.0424736 0)
(-0.181044 0.0306699 0)
(-0.189332 0.0176588 0)
(-0.196016 0.003718 0)
(-0.201141 -0.0109707 0)
(-0.2048 -0.0261346 0)
(-0.206648 -0.041539 0)
(-0.207281 -0.05684 0)
(-0.206122 -0.0710013 0)
(-0.202192 -0.0830472 0)
(-0.195567 -0.0930066 0)
(-0.186393 -0.100418 0)
(-0.175668 -0.105148 0)
(0.0702122 -0.648988 0)
(0.0559234 -0.47774 0)
(0.0332556 -0.321256 0)
(0.00676923 -0.192383 0)
(-0.0206599 -0.0929775 0)
(-0.0470614 -0.0225789 0)
(-0.0708123 0.0203233 0)
(-0.0911852 0.0407712 0)
(-0.108526 0.046998 0)
(-0.124218 0.0462169 0)
(-0.139265 0.0424148 0)
(-0.152823 0.0361624 0)
(-0.164424 0.0279792 0)
(-0.174224 0.0183845 0)
(-0.182225 0.00771643 0)
(-0.188502 -0.00390537 0)
(-0.19302 -0.0162557 0)
(-0.195622 -0.0289762 0)
(-0.196178 -0.0416885 0)
(-0.19454 -0.0537508 0)
(-0.190443 -0.064565 0)
(-0.184213 -0.0738796 0)
(-0.176462 -0.0815733 0)
(-0.167415 -0.0875015 0)
(-0.157869 -0.0917473 0)
(0.0785639 -0.659751 0)
(0.0650053 -0.501736 0)
(0.0432059 -0.353352 0)
(0.0172534 -0.22797 0)
(-0.0100777 -0.128763 0)
(-0.0367062 -0.055936 0)
(-0.0608671 -0.00886855 0)
(-0.0814579 0.015978 0)
(-0.0985776 0.0254512 0)
(-0.112999 0.0266298 0)
(-0.126271 0.0241129 0)
(-0.138823 0.0198259 0)
(-0.149721 0.0140847 0)
(-0.158913 0.00700283 0)
(-0.166288 -0.00125057 0)
(-0.171742 -0.0103997 0)
(-0.175245 -0.0200803 0)
(-0.176711 -0.0299824 0)
(-0.176089 -0.0397701 0)
(-0.173413 -0.049029 0)
(-0.168871 -0.0574078 0)
(-0.162852 -0.0647514 0)
(-0.155791 -0.0710068 0)
(-0.148075 -0.0761645 0)
(-0.140129 -0.0803085 0)
(0.0890949 -0.670188 0)
(0.0762351 -0.52475 0)
(0.0552674 -0.384535 0)
(0.0298798 -0.263027 0)
(0.002791 -0.164512 0)
(-0.0239427 -0.0897081 0)
(-0.048503 -0.0385225 0)
(-0.0694506 -0.0087529 0)
(-0.0865099 0.00498338 0)
(-0.100388 0.00909625 0)
(-0.111945 0.00838007 0)
(-0.122263 0.00560439 0)
(-0.13148 0.00158094 0)
(-0.139266 -0.00335146 0)
(-0.145524 -0.00918124 0)
(-0.150103 -0.0157734 0)
(-0.152898 -0.0228538 0)
(-0.153862 -0.030134 0)
(-0.153018 -0.0373519 0)
(-0.150509 -0.0442883 0)
(-0.146587 -0.0507902 0)
(-0.141549 -0.0567554 0)
(-0.13569 -0.0620922 0)
(-0.129291 -0.0667334 0)
(-0.122579 -0.0706529 0)
(0.102177 -0.680082 0)
(0.0901299 -0.546755 0)
(0.0700406 -0.414796 0)
(0.0452596 -0.297498 0)
(0.0184911 -0.20009 0)
(-0.00827551 -0.123829 0)
(-0.0332531 -0.0688568 0)
(-0.0548535 -0.0339919 0)
(-0.0723636 -0.0153357 0)
(-0.0862176 -0.00733722 0)
(-0.0973151 -0.00526327 0)
(-0.106394 -0.00618193 0)
(-0.113973 -0.00843917 0)
(-0.120239 -0.0115947 0)
(-0.125225 -0.0155407 0)
(-0.128822 -0.0200778 0)
(-0.130968 -0.0250034 0)
(-0.131655 -0.0301436 0)
(-0.130923 -0.0353436 0)
(-0.128905 -0.0404901 0)
(-0.125726 -0.0454884 0)
(-0.121581 -0.0502615 0)
(-0.116671 -0.0547201 0)
(-0.111196 -0.0587577 0)
(-0.105326 -0.062287 0)
(0.118108 -0.689046 0)
(0.107137 -0.56756 0)
(0.08809 -0.444032 0)
(0.0640269 -0.331321 0)
(0.0376336 -0.235417 0)
(0.0109235 -0.158228 0)
(-0.0144365 -0.100043 0)
(-0.0368499 -0.0602498 0)
(-0.0552647 -0.0363337 0)
(-0.0697071 -0.0238637 0)
(-0.0809402 -0.0183402 0)
(-0.0897845 -0.0166014 0)
(-0.0968197 -0.0168889 0)
(-0.102358 -0.0183764 0)
(-0.106562 -0.0206485 0)
(-0.109479 -0.0234707 0)
(-0.111136 -0.0266835 0)
(-0.111577 -0.0301439 0)
(-0.110879 -0.0337052 0)
(-0.109125 -0.0373449 0)
(-0.106388 -0.0410522 0)
(-0.102813 -0.0447466 0)
(-0.0984965 -0.048332 0)
(-0.0936007 -0.0517039 0)
(-0.0882787 -0.0547686 0)
(0.137079 -0.696526 0)
(0.127601 -0.586783 0)
(0.109909 -0.471996 0)
(0.0867866 -0.364348 0)
(0.0608978 -0.270411 0)
(0.0343161 -0.192782 0)
(0.00867736 -0.132054 0)
(-0.0145496 -0.0878593 0)
(-0.0341583 -0.0586501 0)
(-0.0497344 -0.0412726 0)
(-0.0617391 -0.0318372 0)
(-0.0709697 -0.0271172 0)
(-0.0781061 -0.0250638 0)
(-0.0835726 -0.0245777 0)
(-0.0876033 -0.0250818 0)
(-0.0903316 -0.0262576 0)
(-0.0918459 -0.0279183 0)
(-0.0922267 -0.0299387 0)
(-0.0915676 -0.032219 0)
(-0.0899431 -0.0346681 0)
(-0.0874871 -0.0371824 0)
(-0.0842661 -0.0397897 0)
(-0.0803496 -0.0425167 0)
(-0.0758658 -0.0452334 0)
(-0.0709409 -0.0478252 0)
(0.15913 -0.701811 0)
(0.151705 -0.603831 0)
(0.135854 -0.498235 0)
(0.114058 -0.396275 0)
(0.0889378 -0.304898 0)
(0.0626425 -0.227367 0)
(0.0368426 -0.164731 0)
(0.0129359 -0.116863 0)
(-0.00790792 -0.0827525 0)
(-0.024981 -0.0602817 0)
(-0.0383287 -0.0464569 0)
(-0.0485466 -0.038297 0)
(-0.0563255 -0.0335793 0)
(-0.0621924 -0.0309311 0)
(-0.0664795 -0.0295741 0)
(-0.0693886 -0.0290755 0)
(-0.0710552 -0.029192 0)
(-0.0715881 -0.0297837 0)
(-0.0710937 -0.0307647 0)
(-0.0696813 -0.0320768 0)
(-0.0674712 -0.0336473 0)
(-0.0645403 -0.035375 0)
(-0.0610073 -0.037235 0)
(-0.056924 -0.0392422 0)
(-0.0523956 -0.0413456 0)
(0.184096 -0.704061 0)
(0.179404 -0.617897 0)
(0.166064 -0.522048 0)
(0.146181 -0.426565 0)
(0.122286 -0.338511 0)
(0.0965964 -0.261747 0)
(0.0708645 -0.197858 0)
(0.0464825 -0.147071 0)
(0.0245865 -0.108734 0)
(0.00597902 -0.081406 0)
(-0.00905088 -0.0629582 0)
(-0.0207632 -0.0509087 0)
(-0.0297166 -0.0431072 0)
(-0.0364616 -0.0379973 0)
(-0.0414125 -0.0345871 0)
(-0.0448445 -0.0322997 0)
(-0.0469429 -0.0308148 0)
(-0.0478506 -0.0299623 0)
(-0.0476982 -0.0296492 0)
(-0.0466162 -0.0298143 0)
(-0.0447395 -0.0303959 0)
(-0.0421944 -0.0313222 0)
(-0.0390709 -0.0325053 0)
(-0.0354468 -0.0338614 0)
(-0.0313968 -0.0354004 0)
(0.211574 -0.702368 0)
(0.210357 -0.627988 0)
(0.200351 -0.542469 0)
(0.18319 -0.454383 0)
(0.161215 -0.370609 0)
(0.136676 -0.295458 0)
(0.111424 -0.23107 0)
(0.0869142 -0.178118 0)
(0.0642885 -0.136324 0)
(0.0443899 -0.104715 0)
(0.0276881 -0.0817599 0)
(0.0142203 -0.0655861 0)
(0.00367466 -0.0543214 0)
(-0.00440251 -0.0463884 0)
(-0.0104433 -0.0406438 0)
(-0.0147717 -0.0363667 0)
(-0.0176167 -0.0331382 0)
(-0.0191621 -0.0307483 0)
(-0.019579 -0.0290947 0)
(-0.0190356 -0.0281088 0)
(-0.017692 -0.0277219 0)
(-0.0156896 -0.0278367 0)
(-0.0131305 -0.0283404 0)
(-0.0101014 -0.0291323 0)
(-0.00662111 -0.0301446 0)
(0.240907 -0.695844 0)
(0.243875 -0.633005 0)
(0.23811 -0.558289 0)
(0.224668 -0.478576 0)
(0.205565 -0.400206 0)
(0.182994 -0.327719 0)
(0.158885 -0.263752 0)
(0.134792 -0.209469 0)
(0.111921 -0.165011 0)
(0.091167 -0.129817 0)
(0.0731079 -0.102821 0)
(0.0579781 -0.0826261 0)
(0.0456959 -0.0677159 0)
(0.0359733 -0.0566629 0)
(0.0284582 -0.0482958 0)
(0.0228393 -0.0417771 0)