/*--------------------------------*- C++ -*----------------------------------*\
| =========                 |                                                 |
| \\      /  F ield         | OpenFOAM: The Open Source CFD Toolbox           |
|  \\    /   O peration     | Version:  v2012                                 |
|   \\  /    A nd           | Website:  www.openfoam.com                      |
|    \\/     M anipulation  |                                                 |
\*---------------------------------------------------------------------------*/
FoamFile
{
    version     2.0;
    format      ascii;
    class       volScalarField;
    location    "604";
    object      age;
}
// * * * * * * * * * * * * * * * * * * * * * * * * * * * * * * * * * * * * * //

dimensions      [0 0 1 0 0 0 0];


internalField   nonuniform List<scalar> 
6532
(
0.0125027
0.0124994
0.0124996
0.0124998
0.0124998
0.0124998
0.0124998
0.0124996
0.0124994
0.0125027
0.0375147
0.0374954
0.037496
0.0374969
0.0374973
0.0374973
0.0374969
0.037496
0.0374954
0.0375147
0.0625426
0.0624897
0.0624881
0.0624894
0.0624903
0.0624903
0.0624894
0.0624881
0.0624897
0.0625426
0.0875872
0.0874838
0.0874756
0.0874764
0.0874775
0.0874774
0.0874763
0.0874756
0.0874837
0.0875871
0.112648
0.112478
0.112459
0.112457
0.112458
0.112458
0.112457
0.112459
0.112478
0.112648
0.137725
0.137474
0.137438
0.137432
0.137432
0.137432
0.137432
0.137438
0.137473
0.137725
0.162817
0.16247
0.162414
0.162402
0.1624
0.1624
0.162402
0.162414
0.16247
0.162817
0.187923
0.187467
0.187386
0.187366
0.187361
0.187361
0.187366
0.187386
0.187467
0.187923
0.213043
0.212466
0.212356
0.212325
0.212316
0.212316
0.212324
0.212355
0.212465
0.213042
0.238177
0.237465
0.237322
0.237279
0.237265
0.237265
0.237278
0.237321
0.237463
0.238175
0.263323
0.262465
0.262285
0.262228
0.262209
0.262209
0.262227
0.262283
0.262463
0.26332
0.288481
0.287467
0.287246
0.287173
0.287148
0.287148
0.287171
0.287243
0.287463
0.288476
0.313651
0.312469
0.312205
0.312114
0.312082
0.312081
0.312111
0.3122
0.312463
0.313644
0.338833
0.337473
0.337161
0.337051
0.337011
0.33701
0.337047
0.337154
0.337464
0.338822
0.364028
0.362478
0.362115
0.361985
0.361936
0.361934
0.361978
0.362104
0.362464
0.364015
0.389234
0.387485
0.387067
0.386915
0.386856
0.386853
0.386904
0.387051
0.387464
0.389194
0.414453
0.412494
0.412018
0.411842
0.411773
0.411767
0.411826
0.411994
0.412462
0.41448
0.439686
0.437507
0.436969
0.436766
0.436685
0.436677
0.436742
0.436932
0.437458
0.439357
0.464934
0.462524
0.461921
0.461689
0.461594
0.461581
0.461652
0.461865
0.462452
0.466007
0.490198
0.487547
0.486875
0.486612
0.4865
0.486481
0.486555
0.486787
0.487432
0.485178
0.515764
0.512859
0.51211
0.511813
0.511683
0.511653
0.511726
0.511973
0.512675
0.536684
0.541636
0.538462
0.537632
0.537298
0.537145
0.537102
0.537172
0.537433
0.538195
0.571936
0.567539
0.564084
0.563167
0.562793
0.562615
0.562557
0.562623
0.562905
0.563715
0.606381
0.593479
0.589732
0.588723
0.588304
0.588099
0.588025
0.588088
0.588402
0.589248
0.640075
0.619464
0.615414
0.614305
0.613841
0.613606
0.613513
0.613576
0.613938
0.614815
0.673068
0.645505
0.641139
0.639923
0.63941
0.639143
0.639031
0.639097
0.639529
0.640427
0.705169
0.671614
0.66692
0.665588
0.665022
0.66472
0.664589
0.664663
0.665189
0.666101
0.736323
0.697803
0.692768
0.691311
0.690688
0.690349
0.690198
0.690286
0.690932
0.691852
0.766415
0.72409
0.7187
0.717106
0.716422
0.716043
0.715871
0.715979
0.716775
0.717681
0.795265
0.750494
0.744735
0.742991
0.742241
0.741818
0.741624
0.741759
0.742734
0.743595
0.822771
0.777037
0.770896
0.768985
0.768164
0.767693
0.767476
0.767644
0.768828
0.769612
0.848939
0.80375
0.797208
0.795113
0.794213
0.79369
0.793449
0.793653
0.795075
0.79575
0.873774
0.830664
0.823704
0.821404
0.820417
0.819836
0.819567
0.819809
0.821491
0.822027
0.897297
0.85782
0.850425
0.847893
0.846809
0.846163
0.84586
0.846136
0.848093
0.848466
0.919591
0.885267
0.877417
0.874621
0.873428
0.872709
0.872365
0.872664
0.8749
0.875092
0.94079
0.913064
0.904739
0.901641
0.900322
0.899521
0.899125
0.89943
0.901933
0.901941
0.961091
0.941281
0.932458
0.929016
0.92755
0.926655
0.926194
0.926477
0.929218
0.929064
0.980816
0.970008
0.960663
0.956824
0.955187
0.954186
0.953642
0.953869
0.956796
0.956529
1.0004
0.998752
0.988872
0.984587
0.98275
0.981629
0.980986
0.981117
0.984154
0.983873
1.01966
1.0276
1.01717
1.01238
1.01031
1.00906
1.0083
1.00829
1.01134
1.01116
1.0397
1.05727
1.04626
1.0409
1.03854
1.03713
1.03624
1.03605
1.039
1.03902
1.06098
1.08793
1.07629
1.07027
1.06757
1.06598
1.06494
1.06452
1.06724
1.06761
1.08246
1.11978
1.10747
1.10069
1.09757
1.09576
1.09456
1.09388
1.09621
1.09714
1.10432
1.15308
1.14004
1.13239
1.12875
1.12667
1.12528
1.12433
1.12611
1.12784
1.12676
1.18817
1.17429
1.16564
1.16135
1.15894
1.15733
1.15611
1.15718
1.16005
1.14938
1.22546
1.21062
1.2008
1.1957
1.19285
1.19098
1.18951
1.1897
1.19405
1.17548
1.26554
1.24953
1.23833
1.2322
1.22875
1.22656
1.22486
1.22409
1.22918
1.2137
1.30919
1.2917
1.27881
1.27138
1.26712
1.26446
1.26254
1.26089
1.26535
1.25725
1.35756
1.33807
1.32306
1.31393
1.30856
1.30521
1.30299
1.30072
1.30338
1.30175
1.41238
1.39003
1.37221
1.36083
1.35387
1.34951
1.34677
1.34415
1.34465
1.34605
1.47661
1.44975
1.42788
1.41338
1.4042
1.39834
1.39468
1.39176
1.39052
1.39186
1.55571
1.52106
1.49285
1.47371
1.4612
1.45304
1.44786
1.44431
1.44197
1.4419
1.66206
1.61027
1.57057
1.54449
1.52734
1.51587
1.50827
1.5033
1.49998
1.49846
1.82766
1.73993
1.67336
1.63155
1.60554
1.58885
1.57792
1.57079
1.56617
1.56346
2.1668
1.92298
1.81397
1.74864
1.70758
1.68041
1.66223
1.65035
1.64289
1.63853
8.86512
3.98704
2.15396
1.89486
1.8282
1.79302
1.76958
1.75226
1.73972
1.73128
13.9229
10.627
5.33173
2.73089
2.05189
1.92794
1.88742
1.86831
1.85651
1.84811
12.9417
14.0198
10.9881
6.44937
3.65143
2.45007
2.11984
2.03217
1.99702
1.9792
12.5459
12.7309
14.1603
10.8304
7.36411
4.88146
3.49226
2.78614
2.46344
2.33157
12.1041
11.2592
10.9149
10.1948
8.68791
7.28303
6.22378
5.43848
4.85179
4.42071
144.586
169.471
169.451
170.092
171.084
172.572
174.567
177.038
180.177
183.73
187.333
191.471
195.308
198.409
200.655
202.042
202.552
202.747
202.934
203.123
203.321
203.54
203.807
204.197
206.44
141.998
166.659
164.138
164.25
164.428
165.195
167.375
171.693
179.324
189.816
201.849
214.68
227.448
239.235
249.134
256.291
260.179
259.687
254.32
244.686
232.437
220.157
210.753
205.897
206.042
135.238
165.262
163.698
163.542
163.432
163.544
164.326
167.417
176.783
192.964
213.307
236.473
261.314
285.897
307.774
324.434
333.747
334.393
325.901
308.53
283.751
255.172
229.095
211.756
206.366
127.689
164.742
163.633
163.417
163.192
163.155
163.441
164.706
172.632
192.008
219.477
252.998
291.559
332.094
370.003
400.017
417.49
419.562
405.942
378.447
340.213
295.631
252.325
220.42
207.255
119.751
164.708
164.097
163.914
163.245
162.959
162.936
163.436
168.146
187.29
219.555
262.03
314.119
371.998
428.691
475.221
503.331
507.82
488.188
448.343
394.829
334.4
275.303
229.537
208.351
110.753
164.963
165.443
165.591
164.226
163.07
162.77
162.875
164.608
179.708
213.394
261.788
324.833
398.806
474.704
539.394
580.197
588.634
563.737
511.68
442.929
367.653
295.023
237.57
209.364
101.283
164.386
167.572
168.823
166.853
164.142
162.777
162.572
162.799
171.562
202.071
252.073
321.436
407.352
499.796
582.038
636.68
651.248
623.466
561.853
480.578
393.213
310.12
243.846
210.186
91.6692
162.607
169.99
173.357
171.449
167.019
163.522
162.505
162.47
165.462
188.01
234.493
304.27
395.821
499.115
595.645
663.547
686.345
659.973
593.739
504.999
409.955
320.164
248.18
210.794
81.9942
159.521
172.125
178.519
177.805
172.19
166.059
162.764
162.27
162.367
174.628
212.43
276.124
365.75
472.987
578.247
656.627
687.225
670.158
604.757
514.853
417.538
325.174
250.584
211.194
72.3467
154.97
173.666
183.554
185.254
179.57
171.267
164.638
162.268
162.113
165.794
190.275
242.165
322.184
425.136
533.142
619.53
662.519
652.807
595.316
510.752
416.411
325.477
251.199
211.421
62.8833
148.867
174.741
187.942
193.127
188.695
179.174
169.386
163.351
161.961
161.987
172.863
208.511
272.635
363.347
467.251
557.962
609.667
612.199
568.164
494.258
407.447
321.524
250.13
211.641
53.7292
140.888
175.096
191.344
200.888
199.131
189.918
177.968
167.638
162.463
161.78
163.775
181.302
225.373
297.05
389.318
480.396
541.029
555.663
527.456
467.608
391.831
313.878
247.58
211.861
44.9736
131.062
174.114
193.674
207.98
210.214
202.901
190.378
176.977
166.48
161.944
161.685
166.048
188.209
236.447
309.357
393.685
462.345
490.584
477.773
433.67
371.12
303.291
243.897
212.082
36.6955
119.758
171.278
194.972
214.069
221.485
217.643
206.298
191.454
176.928
166.103
161.754
161.611
167.345
190.861
238.916
306.918
377.009
420.986
423.659
395.601
347.172
290.724
239.506
212.309
28.9825
107.236
166.19
195.051
218.734
232.27
233.461
225.201
210.945
194.18
178.297
166.585
161.729
161.542
166.913
188.606
232.721
291.652
345.878
368.776
355.731
321.832
277.212
234.886
212.546
21.8616
93.3206
158.404
193.583
221.388
241.709
249.315
245.935
234.57
218.077
199.441
181.752
168.245
162.052
161.225
164.976
182.59
219.792
268.311
308.402
316.373
296.346
263.861
230.536
212.797
15.7644
78.0373
147.379
189.917
221.518
248.701
263.66
266.761
260.366
246.803
228.414
207.736
187.659
171.502
162.853
160.611
162.388
174.462
203.398
242.18
271.896
271.963
251.121
226.795
213.069
10.9975
62.0153
132.614
182.999
218.721
251.737
274.798
285.596
285.726
277.41
262.348
242.379
219.652
196.842
177.249
164.839
160.049
159.977
166.697
186.303
216.519
240.471
241.816
225.168
213.33
7.54819
46.5145
114.475
171.896
212.633
249.677
280.729
299.62
307.326
305.539
296.048
280.026
258.881
234.465
209.205
186.135
168.931
160.02
157.787
159.833
170.913
191.253
213.506
221.916
216.608
5.1322
32.5204
93.6099
155.615
202.352
242.396
279.436
306.84
322.222
327.734
324.84
314.83
298.416
276.692
251.287
224.379
198.596
177.042
163.131
156.741
155.739
158.534
167.755
177.61
181.603
3.49512
20.6501
71.2057
133.544
186.268
229.607
270.042
304.903
328.925
341.726
345.617
342.354
332.605
316.655
295.228
269.85
242.499
215.447
191.224
172.233
160.302
153.476
150.433
149.894
149.744
2.4534
11.6569
48.4096
106.098
162.878
210.447
252.847
291.968
323.982
345.145
355.85
357.994
355.222
347.04
332.709
312.702
288.777
262.543
236.237
212.007
192.112
177.489
167.788
162.349
160.673
1.82597
6.38661
28.6774
75.725
131.721
183.21
228.012
268.777
305.299
334.366
353.661
361.841
362.232
360.711
355.765
343.781
326.566
305.122
282.043
258.353
236.044
217.819
204.639
196.637
193.372
1.47962
3.65629
14.515
47.0443
95.3663
147.044
194.384
236.508
274.485
307.643
334.033
352.222
360.042
361.571
362.157
356.947
347.561
331.852
314.199
296.781
277.231
258.841
243.319
232.093
225.917
1.31297
2.31139
6.38353
23.8185
58.9709
104.385
151.256
194.631
233.458
267.869
297.378
321.312
338.885
349.142
353.421
353.637
348.891
338.977
324.355
313.419
299.744
285.788
272.812
261.122
251.278
1.24796
1.65311
3.13985
9.71922
29.6105
62.3212
102.318
143.569
182.333
217.177
247.679
273.615
294.823
310.714
321.059
326.08
326.421
322.609
316.118
307.754
297.446
286.643
276.85
268.902
263.074
1.23944
1.37283
1.94105
3.5401
11.0966
29.1689
56.5677
89.5523
124.049
157.131
187.207
213.549
235.9
254.049
267.759
276.984
282.017
283.406
281.759
277.682
271.923
265.24
258.302
251.655
245.759
1.25722
1.29809
1.45851
1.87898
3.34397
9.56393
23.3126
43.7739
68.613
95.1871
121.329
145.583
167.115
185.473
200.396
211.799
219.799
224.679
226.84
226.796
224.99
221.897
218.006
213.764
209.564
1.29551
1.30439
1.32851
1.42784
1.57175
2.19653
5.69064
13.7483
26.9126
43.4863
61.7741
80.2768
97.8707
113.788
127.541
138.877
147.744
154.237
158.56
160.982
161.851
161.523
160.281
158.42
156.21
1.34271
1.34056
1.3396
1.35444
1.39923
1.50097
1.62166
2.32379
5.25531
10.9085
19.3522
29.7662
40.8745
51.8186
61.9815
70.9534
78.514
84.59
89.2194
92.5105
94.6253
95.7461
96.0979
95.8805
95.2339
1.39206
1.39066
1.38571
1.38034
1.38668
1.41135
1.45224
1.52853
1.61258
1.68717
2.44124
4.37931
7.40535
11.2868
15.7135
20.382
24.8908
28.8723
32.1966
34.8324
36.809
38.1914
39.0647
39.5185
39.6595
1.44315
1.44426
1.44349
1.43952
1.43481
1.43398
1.44339
1.46385
1.49756
1.53365
1.59102
1.63949
1.68631
1.73375
1.78021
1.97312
2.38279
2.91252
3.47994
4.02202
4.49772
4.88519
5.17732
5.37856
5.50098
1.49888
1.50064
1.50282
1.50402
1.50321
1.50095
1.49968
1.50099
1.51185
1.52462
1.5451
1.57146
1.59985
1.62943
1.65866
1.69529
1.73
1.76046
1.78997
1.81909
1.8479
1.87642
1.90468
1.93269
1.96053
1.5626
1.5635
1.56593
1.56936
1.57288
1.5757
1.57768
1.5794
1.58104
1.58595
1.59354
1.60397
1.61987
1.63707
1.6546
1.6749
1.69757
1.72119
1.74517
1.76933
1.79361
1.81797
1.84238
1.86684
1.89133
1.63648
1.63634
1.63793
1.64113
1.6457
1.65118
1.65705
1.66315
1.6689
1.67507
1.682
1.69004
1.69915
1.7101
1.72293
1.73719
1.75282
1.76975
1.7878
1.80679
1.82654
1.84694
1.86836
1.89033
1.91237
1.72629
1.72404
1.72396
1.72583
1.72948
1.73472
1.74132
1.74905
1.75762
1.76684
1.77664
1.78709
1.79813
1.80992
1.82259
1.83619
1.85069
1.86607
1.88228
1.89929
1.91701
1.93537
1.95429
1.97369
1.99353
1.84228
1.83868
1.83705
1.83729
1.83931
1.84301
1.8483
1.85506
1.86316
1.87247
1.88284
1.89415
1.90633
1.91929
1.933
1.94742
1.96252
1.97827
1.99463
2.01157
2.02903
2.04698
2.06537
2.08415
2.10326
1.97078
1.96761
1.96742
1.96923
1.97259
1.97728
1.9832
1.9903
1.99852
2.00783
2.01817
2.02947
2.04168
2.05474
2.06857
2.08312
2.09834
2.11416
2.13054
2.14743
2.16478
2.18254
2.20067
2.21913
2.23787
2.26914
2.23478
2.21448
2.20279
2.19683
2.1949
2.196
2.19951
2.20498
2.21212
2.22072
2.2306
2.24163
2.25369
2.26668
2.28052
2.29512
2.31041
2.32632
2.34279
2.35976
2.37717
2.39498
2.41311
2.43161
4.12686
3.93024
3.79347
3.69426
3.61982
3.56284
3.5189
3.48512
3.45948
3.44052
3.42711
3.41839
3.41366
3.41236
3.414
3.41819
3.42461
3.43299
3.44308
3.45468
3.46759
3.48164
3.49668
3.51256
3.52926
216.079
216.363
145.159
171.587
158.325
144.618
149.362
148.359
154.861
162.591
168.511
180.136
194.467
199.852
208.531
224.558
226.666
231.274
244.592
241.764
242.298
259.255
257.236
255.808
241.165
237.917
235.747
205.913
202.943
200.497
154.031
152.037
150.189
94.3813
93.454
92.4805
39.598
39.3929
39.0909
5.55583
5.58716
5.6047
1.98492
2.00903
2.03306
1.91434
1.93587
1.95742
1.93306
1.9527
1.97223
2.01248
2.03044
2.04861
2.12147
2.13869
2.15608
2.25568
2.2725
2.28945
2.4487
2.4652
2.48181
3.5444
3.55984
3.57551
172.147
145.858
139.616
138.973
138.681
138.536
138.403
138.289
138.187
138.094
138.01
137.931
137.857
137.787
137.72
137.656
137.594
137.535
137.477
137.42
137.366
137.312
137.259
137.208
137.157
137.107
137.058
137.01
136.962
136.915
136.868
136.822
136.776
136.73
136.685
136.64
136.596
136.552
136.508
136.464
136.42
136.377
136.334
136.29
136.247
136.204
136.155
136.092
136.016
135.923
135.814
135.687
135.542
135.379
135.197
134.997
134.781
134.55
134.309
134.063
133.821
133.594
133.399
133.258
133.188
133.111
133.026
132.927
132.822
132.884
133.184
133.795
134.967
136.313
138.604
140.827
142.48
143.035
143.342
144.052
150.513
141.427
139.457
139.21
139.284
139.617
140.202
141.055
142.159
143.475
144.941
146.485
148.066
149.66
151.246
152.811
154.345
155.84
157.293
158.701
160.061
161.373
162.637
163.854
165.022
166.144
167.221
168.252
169.239
170.183
171.084
171.944
172.762
173.538
174.273
174.965
175.612
176.211
176.76
177.254
177.687
178.055
178.35
178.565
178.69
178.72
178.649
178.465
178.15
177.69
177.075
176.291
175.326
174.166
172.799
171.21
169.386
167.313
164.981
162.38
159.508
156.372
152.997
149.457
145.932
142.464
139.208
136.33
133.965
132.334
131.667
131.501
132.347
134.522
139.752
146.393
153.037
151.002
146.833
144.787
144.336
140.156
139.648
140.13
141.483
143.776
147.01
151.01
155.536
160.357
165.29
170.23
175.124
179.912
184.559
189.042
193.35
197.478
201.425
205.195
208.793
212.224
215.495
218.613
221.585
224.417
227.117
229.691
232.143
234.48
236.706
238.826
240.844
242.763
244.583
246.305
247.925
249.441
250.847
252.134
253.294
254.315
255.183
255.883
256.397
256.707
256.793
256.642
256.231
255.533
254.523
253.173
251.454
249.337
246.79
243.777
240.263
236.209
231.575
226.321
220.411
213.815
206.518
198.524
189.874
180.663
171.058
161.333
151.905
143.404
136.866
132.714
131.055
131.145
134.485
142.176
150.691
154.976
148.712
145.443
142.406
140.12
140.438
142.546
146.407
152.058
159.179
167.294
175.965
184.858
193.744
202.472
210.94
219.081
226.861
234.266
241.295
247.957
254.265
260.236
265.888
271.24
276.309
281.113
285.669
289.992
294.095
297.992
301.695
305.215
308.562
311.747
314.776
317.658
320.396
322.991
325.444
327.75
329.903
331.893
333.71
335.339
336.762
337.958
338.906
339.578
339.945
339.976
339.643
338.909
337.737
336.088
333.922
331.196
327.863
323.875
319.174
313.701
307.389
300.17
291.969
282.719
272.354
260.826
248.117
234.253
219.344
203.611
187.445
171.455
156.54
143.932
135.183
130.947
130.261
133.964
142.475
149.774
148.727
145.926
141.787
140.283
142.007
146.439
153.637
163.294
174.689
187.092
199.933
212.805
225.433
237.64
249.317
260.414
270.914
280.824
290.163
298.962
307.251
315.065
322.436
329.397
335.978
342.205
348.104
353.698
359.008
364.051
368.845
373.404
377.745
381.878
385.819
389.577
393.158
396.566
399.8
402.855
405.725
408.398
410.86
413.093
415.077
416.786
418.193
419.263
419.962
420.246
420.073
419.4
418.181
416.367
413.909
410.757
406.859
402.16
396.594
390.093
382.579
373.967
364.167
353.081
340.613
326.666
311.157
294.029
275.28
255.007
233.47
211.181
188.996
168.173
150.338
137.329
130.803
129.463
133.309
142.816
148.58
146.311
141.573
140.777
144.184
151.416
162.329
176.129
191.725
208.194
224.868
241.292
257.174
272.346
286.727
300.296
313.064
325.066
336.345
346.952
356.936
366.347
375.231
383.63
391.584
399.127
406.291
413.104
419.589
425.768
431.661
437.284
442.653
447.785
452.694
457.397
461.901
466.209
470.318
474.221
477.907
481.362
484.566
487.497
490.128
492.429
494.365
495.894
496.971
497.545
497.559
496.954
495.675
493.661
490.854
487.201
482.65
477.148
470.637
463.049
454.314
444.352
433.077
420.397
406.213
390.422
372.916
353.59
332.356
309.172
284.095
257.382
229.628
201.921
175.933
153.82
137.879
130.049
128.459
132.641
143.862
147.439
141.545
141.461
146.753
157.011
171.691
189.482
208.979
229.109
249.139
268.599
287.218
304.867
321.505
337.15
351.845
365.653
378.641
390.877
402.426
413.35
423.704
433.538
442.899
451.824
460.351
468.507
476.32
483.811
490.999
497.9
504.53
510.903
517.04
522.957
528.667
534.166
539.447
544.498
549.299
553.828
558.056
561.952
565.478
568.592
571.247
573.388
574.957
575.885
576.099
575.523
574.085
571.711
568.328
563.88
558.325
551.623
543.733
534.607
524.195
512.441
499.286
484.662
468.499
450.715
431.221
409.921
386.708
361.482
334.165
304.766
273.503
241.013
208.615
178.486
153.456
136.283
128.706
127.42
132.95
148.096
141.644
142.201
149.521
162.831
181.131
202.612
225.605
248.93
271.82
293.829
314.735
334.46
353.015
370.455
386.858
402.311
416.902
430.715
443.826
456.307
468.219
479.619
490.555
501.07
511.2
520.975
530.421
539.559
548.404
556.968
565.263
573.301
581.104
588.696
596.086
603.263
610.209
616.902
623.309
629.396
635.118
640.427
645.269
649.581
653.293
656.329
658.602
660.02
660.482
659.886
658.133
655.129
650.79
645.056
637.901
629.318
619.303
607.85
594.951
580.6
564.787
547.496
528.704
508.369
486.436
462.829
437.458
410.219
381.002
349.708
316.301
280.95
244.333
208.06
174.985
148.843
132.795
127.317
126.304
126.991
141.783
142.919
152.347
168.599
190.257
215.053
241.105
267.155
292.446
316.581
339.401
360.891
381.109
400.15
418.124
435.141
451.307
466.719
481.464
495.619
509.253
522.424
535.185
547.578
559.64
571.402
582.887
594.112
605.088
615.821
626.312
636.569
646.619
656.494
666.194
675.699
684.976
693.985
702.676
710.994
718.873
726.237
733.002
739.076
744.352
748.715
752.039
754.187
755.015
754.379
752.137
748.167
742.368
734.683
725.107
713.694
700.511
685.619
669.085
650.986
631.397
610.391
588.021
564.314
539.262
512.812
484.875
455.332
424.051
390.897
355.751
318.544
279.431
239.198
199.931
165.464
140.647
128.88
126.085
125.619
141.917
143.648
155.131
174.137
198.832
226.542
255.212
283.547
310.827
336.722
361.147
384.145
405.824
426.317
445.762
464.291
482.026
499.077
515.538
531.496
547.022
562.179
577.021
591.592
605.93
620.064
634.014
647.795
661.41
674.855
688.119
701.202
714.14
726.971
739.687
752.256
764.624
776.73
788.501
799.85
810.678
820.874
830.311
838.847
846.327
852.58
857.419
860.643
862.044
861.412
858.543
853.269
845.467
835.084
822.153
806.819
789.259
769.634
748.125
724.927
700.241
674.262
647.16
619.063
590.035
560.067
529.072
496.891
463.327
428.172
391.241
352.392
311.548
268.913
225.601
184.649
151.434
131.924
126.323
125.272
142.038
144.391
157.811
179.342
206.734
236.952
267.816
298.028
326.924
354.256
380.009
404.285
427.237
449.035
469.843
489.812
509.082
527.771
545.986
563.817
581.344
598.632
615.74
632.713
649.589
666.397
683.155
699.873
716.546
733.159
749.689
766.125
782.51
798.888
815.249
831.545
847.704
863.639
879.243
894.395
908.955
922.76
935.63
947.363
957.734
966.498
973.388
978.115
980.378
979.872
976.309
969.445
959.134
945.335
928.151
907.85
884.754
859.172
831.433
801.885
770.884
738.777
705.874
672.424
638.589
604.421
569.851
534.692
498.663
461.436
422.701
382.218
339.832
295.491
249.593
204.074
163.876
136.491
126.803
125.081
142.149
145.138
160.362
184.178
213.923
246.255
278.91
310.615
340.782
369.244
396.057
421.378
445.401
468.328
490.345
511.626
532.32
552.56
572.461
592.121
611.625
631.046
650.445
669.87
689.362
708.948
728.646
748.459
768.377
788.374
808.413
828.474
848.599
868.842
889.198
909.61
929.987
950.216
970.158
989.656
1008.52
1026.54
1043.46
1059.01
1072.89
1084.75
1094.23
1100.91
1104.37
1104.17
1099.9
1091.23
1078.01
1060.22
1038.08
1012.04
982.569
950.175
915.367
878.674
840.62
801.707
762.389
723.038
683.914
645.138
606.67
568.309
529.71
490.424
449.982
407.979
364.159
318.389
270.712
222.091
176.402
141.931
127.465
124.92
142.253
145.891
162.799
188.671
220.439
254.503
288.557
321.384
352.483
381.77
409.364
435.472
460.326
484.151
507.158
529.533
551.44
573.02
594.397
615.678
636.954
658.302
679.788
701.464
723.374
745.544
767.99
790.712
813.694
836.903
860.294
883.831
907.552
931.525
955.756
980.189
1004.72
1029.22
1053.53
1077.46
1100.77
1123.2
1144.44
1164.13
1181.87
1197.2
1209.61
1218.57
1223.48
1223.73
1218.75
1208.06
1191.66
1169.75
1142.45
1110.47
1074.47
1035.16
993.253
949.456
904.454
858.889
813.333
768.258
724.006
680.759
638.507
597.046
555.987
514.794
472.855
429.587
384.56
337.573
288.561
237.88
188.193
147.599
128.228
124.78
142.351
146.669
165.183
192.917
226.395
261.814
296.877
330.451
362.133
391.919
419.988
446.589
471.982
496.413
520.108
543.264
566.055
588.629
611.117
633.63
656.265
679.104
702.216
725.656
749.466
773.676
798.299
823.333
848.758
874.536
900.616
926.951
953.567
980.54
1007.89
1035.58
1063.49
1091.5
1119.43
1147.06
1174.14
1200.36
1225.36
1248.71
1269.88
1288.27
1303.17
1313.88
1319.85
1320.59
1315.64
1304.13
1284.65
1259.42
1227.77
1190.7
1149.14
1104
1056.16
1006.49
955.792
904.816
854.209
804.508
756.107
709.23
663.896
619.908
576.852
534.141
491.071
446.915
401.064
353.188
303.2
251.174
198.71
153.108
129.017
124.652
142.446
147.544
167.671
197.119
232.001
268.38
304.036
337.955
369.842
399.771
427.973
454.726
480.313
504.993
528.998
552.533
575.774
598.874
621.966
645.163
668.563
692.251
716.295
740.751
765.661
791.053
816.936
843.308
870.145
897.406
925.036
952.977
981.239
1009.89
1038.97
1068.44
1098.2
1128.12
1158.01
1187.67
1216.83
1245.19
1272.34
1297.73
1320.46
1338.7
1350.74
1357.16
1359.35
1359.07
1357.64
1354.15
1339.17
1312.52
1278.84
1238.99
1194.29
1145.84
1094.65
1041.67
987.775
933.759
880.312
828
777.24
728.282
681.168
635.718
591.526
547.985
504.351
459.824
413.658
365.373
314.848
262.088
207.893
158.367
129.822
124.533
142.536
148.596
170.506
201.598
237.565
274.463
310.238
344.046
375.713
405.386
433.334
459.857
485.247
509.767
533.65
557.099
580.287
603.366
626.466
649.698
673.157
696.924
721.064
745.628
770.657
796.174
822.186
848.685
875.645
903.023
930.758
958.787
987.1
1015.74
1044.75
1074.09
1103.66
1133.34
1162.95
1192.28
1221.07
1249.03
1275.78
1300.83
1323.55
1342.25
1353.74
1357.53
1359.21
1360.54
1360.28
1355.14
1341.46
1316.85
1284.01
1244.78
1200.55
1152.48
1101.6
1048.87
995.165
941.291
887.936
835.67
784.916
735.938
688.798
643.345
599.203
555.79
512.372
468.139
422.288
374.218
323.735
270.868
215.913
163.563
130.746
124.423
142.62
150.273
174.251
206.836
243.461
280.333
315.673
348.85
379.817
408.788
436.059
461.937
486.708
510.628
533.925
556.792
579.394
601.876
624.357
646.944
669.723
692.768
716.139
739.878
764.02
788.582
813.565
838.958
864.73
890.835
917.21
943.793
970.561
997.528
1024.7
1052.03
1079.44
1106.81
1133.97
1160.73
1186.84
1212.02
1235.95
1258.23
1278.48
1295.86
1310.51
1320.73
1326.47
1327.76
1323.6
1313.13
1295.87
1271.93
1241.81
1206.23
1166
1122.01
1075.15
1026.29
976.256
925.791
875.557
826.102
777.845
731.047
685.788
641.949
599.203
557.029
514.755
471.617
426.834
379.757
330.111
277.956
223.35
169.408
132.195
124.321
142.777
152.677
179.453
213.39
250.029
286.131
320.37
352.344
382.103
409.9
436.046
460.842
484.561
507.445
529.704
551.517
573.033
594.383
615.676
637.003
658.443
680.059
701.9
724.003
746.391
769.073
792.046
815.295
838.79
862.484
886.313
910.216
934.163
958.142
982.133
1006.09
1029.94
1053.55
1076.8
1099.5
1121.45
1142.4
1162.1
1180.23
1196.48
1210.44
1221.87
1230.3
1235.15
1235.71
1231.46
1221.98
1207.13
1186.94
1161.67
1131.75
1097.71
1060.19
1019.89
977.503
933.717
889.18
844.472
800.087
756.405
713.667
671.961
631.198
591.11
551.258
511.068
469.883
427.012
381.853
334.119
283.933
231.491
178.187
136.177
124.233
144.141
159.117
188.185
222.219
257.578
291.838
324.143
354.284
382.357
408.583
433.232
456.583
478.894
500.389
521.258
541.656
561.716
581.547
601.244
620.884
640.533
660.244
680.055
699.995
720.077
740.304
760.668
781.155
801.736
822.368
842.995
863.555
884.011
904.338
924.508
944.477
964.172
983.495
1002.33
1020.52
1037.92
1054.34
1069.56
1083.37
1095.51
1105.74
1113.8
1119.4
1122.22
1121.82
1117.78
1109.77
1097.65
1081.41
1061.16
1037.13
1009.68
979.216
946.229
911.229
874.738
837.26
799.257
761.126
723.176
685.605
648.486
611.747
575.175
538.426
501.045
462.514
422.283
379.891
335.176
288.43
240.494
192.01
147.042
124.248
151.309
173.099
202.052
233.882
266.194
297.353
326.812
354.441
380.309
404.571
427.417
449.056
469.704
489.56
508.792
527.533
545.893
563.962
581.817
599.521
617.126
634.673
652.195
669.711
687.229
704.746
722.252
739.734
757.169
774.518
791.736
808.772
825.584
842.143
858.42
874.376
889.955
905.081
919.663
933.591
946.742
958.981
970.159
980.114
988.678
995.675
1000.93
1004.26
1005.45
1004.26
1000.4
993.623
983.805
970.903
954.959
936.098
914.518
890.483
864.304
836.326
806.907
776.4
745.129
713.378
681.361
649.214
616.976
584.584
551.873
518.582
484.382
448.897
411.732
372.605
331.573
289.185
246.667
206.132
168.308
133.86
170.162
193.456
219.453
247.165
275.055
302.108
327.952
352.451
375.606
397.49
418.209
437.888
456.68
474.731
492.17
509.102
525.613
541.777
557.654
573.294
588.738
604.019
619.162
634.18
649.077
663.848
678.483
692.97
707.292
721.421
735.322
748.957
762.293
775.299
787.951
800.217
812.057
823.418
834.234
844.43
853.921
862.613
870.403
877.183
882.84
887.259
890.323
891.919
891.913
890.161
886.491
880.741
872.804
862.631
850.225
835.64
818.98
800.395
780.068
758.206
735.029
710.753
685.575
659.664
633.142
606.079
578.479
550.279
521.355
491.525
460.565
428.223
394.235
358.503
321.29
283.244
245.362
208.868
176.041
149.296
195.731
215.715
236.93
259.525
282.381
304.863
326.683
347.656
367.735
386.92
405.249
422.778
439.577
455.723
471.29
486.349
500.962
515.186
529.066
542.643
555.949
569.011
581.849
594.473
606.885
619.076
631.038
642.765
654.244
665.459
676.388
687.004
697.284
707.204
716.744
725.882
734.592
742.837
750.577
757.76
764.332
770.232
775.393
779.744
783.213
785.726
787.209
787.588
786.79
784.725
781.291
776.387
769.935
761.889
752.228
740.963
728.138
713.824
698.114
681.116
662.941
643.697
623.48
602.366
580.401
557.6
533.943
509.373
483.804
457.117
429.179
399.829
368.931
336.56
303.106
269.215
235.735
203.748
174.34
148.697
220.331
235.011
250.991
268.319
286.156
304.074
321.791
339.124
355.98
372.319
388.125
403.383
418.082
432.235
445.875
459.038
471.763
484.084
496.035
507.644
518.937
529.936
540.657
551.111
561.295
571.202
580.825
590.162
599.208
607.955
616.392
624.502
632.271
639.683
646.726
653.384
659.641
665.475
670.861
675.768
680.162
684.003
687.251
689.861
691.788
692.983
693.403
693.001
691.731
689.537
686.358
682.129
676.796
670.317
662.662
653.813
643.77
632.553
620.195
606.732
592.201
576.636
560.063
542.494
523.932
504.36
483.751
462.062
439.238
415.219
389.936
363.31
335.32
306.164
276.276
246.256
216.819
188.76
162.939
140.213
238.493
248.064
259.167
271.618
284.779
298.363
312.132
325.903
339.56
353.029
366.24
379.124
391.62
403.7
415.36
426.612
437.469
447.949
458.07
467.851
477.307
486.455
495.308
503.874
512.15
520.128
527.803
535.177
542.25
549.02
555.482
561.628
567.45
572.939
578.087
582.886
587.326
591.394
595.075
598.351
601.201
603.601
605.525
606.945
607.832
608.158
607.894
607.008
605.467
603.234
600.268
596.524
591.959
586.534
580.211
572.955
564.735
555.538
545.356
534.186
522.023
508.861
494.687
479.489
463.247
445.94
427.542
408.03
387.382
365.585
342.628
318.5
293.282
267.243
240.813
214.527
188.973
164.763
142.462
122.577
245.575
250.966
257.993
266.384
275.675
285.582
295.904
306.474
317.167
327.883
338.529
349.018
359.277
369.258
378.933
388.287
397.319
406.031
414.429
422.519
430.312
437.817
445.042
451.993
458.668
465.057
471.156
476.967
482.492
487.732
492.685
497.348
501.716
505.785
509.549
513.003
516.142
518.957
521.439
523.578
525.359
526.769
527.788
528.399
528.585
528.324
527.59
526.358
524.602
522.293
519.398