/*--------------------------------*- C++ -*----------------------------------*\
| =========                 |                                                 |
| \\      /  F ield         | OpenFOAM: The Open Source CFD Toolbox           |
|  \\    /   O peration     | Version:  v2012                                 |
|   \\  /    A nd           | Website:  www.openfoam.com                      |
|    \\/     M anipulation  |                                                 |
\*---------------------------------------------------------------------------*/
FoamFile
{
    version     2.0;
    format      ascii;
    class       volScalarField;
    location    "604";
    object      k;
}
// * * * * * * * * * * * * * * * * * * * * * * * * * * * * * * * * * * * * * //

dimensions      [0 2 -2 0 0 0 0];


internalField   nonuniform List<scalar> 
6532
(
1.18307
1.4747
1.52558
1.53807
1.54328
1.54328
1.53807
1.52558
1.4747
1.18307
0.705999
1.09268
1.19287
1.2232
1.23249
1.23249
1.2232
1.19287
1.09268
0.705999
0.46915
0.8347
0.954031
0.996647
1.01044
1.01044
0.996647
0.954031
0.834701
0.46915
0.336755
0.657293
0.778753
0.827809
0.845085
0.845086
0.82781
0.778753
0.657293
0.336755
0.25569
0.531609
0.647353
0.698576
0.717963
0.717963
0.698577
0.647354
0.53161
0.255691
0.20242
0.439787
0.546791
0.597494
0.617786
0.617786
0.597495
0.546792
0.439788
0.20242
0.165413
0.370764
0.468314
0.51697
0.537281
0.537281
0.516972
0.468317
0.370766
0.165414
0.138541
0.317548
0.405963
0.451801
0.471548
0.471549
0.451803
0.405966
0.317551
0.138542
0.118318
0.275599
0.355608
0.398321
0.41716
0.417161
0.398323
0.355612
0.275604
0.11832
0.102648
0.241889
0.314342
0.35389
0.371645
0.371646
0.353894
0.314348
0.241895
0.10265
0.0902077
0.214341
0.280079
0.316573
0.333176
0.333178
0.316579
0.280086
0.214349
0.0902106
0.0801297
0.191496
0.251295
0.284924
0.300377
0.30038
0.284932
0.251306
0.191508
0.0801336
0.0718242
0.172309
0.226863
0.257845
0.27219
0.272194
0.257855
0.226878
0.172325
0.0718295
0.0648785
0.156011
0.205929
0.234492
0.247793
0.247799
0.234506
0.20595
0.156034
0.0648858
0.0589964
0.14203
0.187843
0.214208
0.22654
0.226548
0.214228
0.187871
0.14206
0.0590062
0.0539599
0.129929
0.172099
0.196473
0.207914
0.207925
0.196501
0.172137
0.129971
0.0539733
0.049606
0.119374
0.1583
0.180875
0.191501
0.191515
0.180915
0.158353
0.11943
0.0496241
0.0458099
0.1101
0.14613
0.167081
0.176963
0.176982
0.167135
0.146205
0.110176
0.0458341
0.0424749
0.1019
0.135336
0.154817
0.164023
0.16405
0.154891
0.135441
0.102002
0.0425072
0.0395244
0.0946023
0.125705
0.143856
0.152448
0.152484
0.143956
0.125846
0.0947154
0.0395646
0.0368472
0.0879542
0.116921
0.133849
0.141876
0.141924
0.133984
0.117114
0.0881366
0.036807
0.0344553
0.0819852
0.109019
0.124837
0.132352
0.132416
0.125018
0.109281
0.08225
0.0352029
0.0323066
0.0766035
0.101889
0.1167
0.123752
0.123834
0.116934
0.102228
0.0770343
0.0345849
0.0303664
0.0717288
0.095427
0.109325
0.115956
0.116057
0.109606
0.0958134
0.072469
0.0350359
0.028606
0.0672938
0.0895476
0.102614
0.108864
0.108981
0.10292
0.0899864
0.0685972
0.0366334
0.0270013
0.0632421
0.0841773
0.0964853
0.10239
0.102524
0.0968187
0.0847474
0.0654054
0.0392401
0.025532
0.0595253
0.079254
0.0908701
0.0964622
0.0966206
0.0912814
0.0800846
0.062807
0.0425927
0.0241808
0.0561024
0.0747241
0.085708
0.0910185
0.0912131
0.0862526
0.075954
0.0607851
0.0463933
0.0229329
0.0529377
0.0705413
0.0809473
0.0860062
0.0862514
0.0816839
0.0723099
0.0592836
0.0500282
0.0217754
0.0500002
0.0666654
0.0765431
0.0813795
0.0816911
0.0775318
0.0691046
0.0581945
0.0528983
0.0206971
0.0472625
0.0630612
0.0724563
0.0770979
0.0774928
0.0737559
0.0662884
0.0574109
0.0550641
0.019688
0.0447019
0.0596979
0.0686525
0.0731261
0.0736211
0.0703186
0.0638094
0.0568224
0.0565887
0.0187393
0.0422967
0.0565481
0.0651015
0.0694328
0.0700439
0.0671832
0.0616074
0.056262
0.0575216
0.017843
0.0400276
0.0535878
0.0617764
0.0659901
0.0667323
0.0643144
0.0596262
0.0556668
0.0579159
0.0169919
0.037878
0.0507956
0.0586538
0.0627732
0.0636594
0.0616791
0.0578136
0.0549861
0.0578198
0.0161795
0.0358334
0.0481526
0.0557128
0.05976
0.0608012
0.0592463
0.0561224
0.0541841
0.0572788
0.0153998
0.033881
0.0456423
0.0529351
0.0569314
0.0581361
0.0569886
0.0545181
0.0532437
0.0563419
0.0146474
0.0320115
0.0432521
0.0503072
0.0542729
0.0556478
0.0548853
0.0529781
0.0521681
0.0550694
0.0139443
0.0302766
0.0410455
0.0478959
0.0518492
0.0533932
0.0529803
0.0515371
0.0510169
0.0535829
0.0132577
0.028601
0.0389284
0.0456001
0.0495588
0.051276
0.05119
0.0501401
0.0497891
0.0519277
0.0125837
0.0269766
0.0368874
0.0434031
0.0473835
0.0492778
0.0494997
0.0487874
0.0485232
0.0501864
0.011919
0.0253983
0.0349132
0.0412935
0.0453107
0.0473864
0.0479011
0.0474866
0.047265
0.0484496
0.0112604
0.0238611
0.0329966
0.0392588
0.0433262
0.0455874
0.0463849
0.0462451
0.0460574
0.0468037
0.0106051
0.02236
0.0311273
0.0372844
0.0414127
0.0438634
0.0449378
0.0450648
0.0449324
0.0453199
0.00995059
0.0208898
0.0292936
0.0353527
0.0395486
0.0421909
0.0435397
0.0439372
0.0439032
0.0440415
0.00929417
0.0194453
0.027482
0.0334425
0.0377067
0.0405396
0.0421609
0.042839
0.0429585
0.0429745
0.00863329
0.0180215
0.0256773
0.0315284
0.0358535
0.0388704
0.0407601
0.0417299
0.0420594
0.0420823
0.00796519
0.0166128
0.0238629
0.0295811
0.033949
0.0371356
0.0392843
0.0405527
0.0411409
0.0412879
0.0072867
0.0152136
0.022021
0.0275681
0.0319482
0.0352799
0.0376703
0.0392355
0.0401168
0.0404815
0.0065937
0.0138156
0.0201328
0.0254555
0.0298032
0.0332441
0.0358487
0.0376977
0.0388882
0.0395345
0.00588008
0.0124072
0.0181793
0.023212
0.0274692
0.030971
0.0337513
0.0358583
0.0373546
0.0383152
0.00513669
0.0109742
0.0161442
0.0208156
0.0249141
0.0284171
0.0313228
0.033649
0.0354291
0.0367078
0.00433694
0.00956125
0.0140465
0.0182712
0.0221339
0.025569
0.0285391
0.0310323
0.0330566
0.0346303
0.00347318
0.0083044
0.0120578
0.0157076
0.0192149
0.0224846
0.025438
0.0280283
0.0302351
0.0320543
0.00256133
0.00717114
0.0103907
0.0134125
0.016424
0.0193812
0.0221886
0.0247647
0.027059
0.0290388
0.0015674
0.00602064
0.00900604
0.0115751
0.0140847
0.0166176
0.0191266
0.0215354
0.0237731
0.0257857
0.000953624
0.00455531
0.0075671
0.0100298
0.0122719
0.0144653
0.016644
0.0187741
0.0208004
0.0226696
0.000778718
0.00277877
0.00581006
0.0084097
0.0106785
0.0127547
0.0147146
0.0165718
0.0183151
0.0199279
0.000838883
0.00195765
0.00418922
0.0067053
0.0090239
0.0110709
0.0128795
0.0144772
0.0158777
0.0171202
0.000908858
0.0015708
0.00233318
0.00346124
0.00465559
0.00591537
0.00679004
0.00754835
0.0082131
0.00876866
0.0078816
0.00307308
0.00320825
0.00340635
0.00356841
0.00367456
0.00371714
0.00369563
0.00361028
0.00348089
0.00331794
0.00312375
0.00290118
0.00266328
0.00241808
0.00216973
0.00191924
0.0016896
0.00148171
0.0012861
0.00109744
0.000911329
0.000722466
0.000522509
0.000281269
0.0155934
0.00755088
0.00683555
0.00701695
0.00728029
0.00747972
0.00757157
0.00753783
0.00736885
0.00706727
0.006684
0.00624934
0.00578512
0.00531021
0.00483765
0.00437594
0.0039276
0.0034744
0.00301885
0.00256698
0.00212862
0.00171703
0.00135278
0.00102753
0.000522683
0.0243467
0.0123987
0.00970451
0.00918887
0.00917169
0.00920938
0.00917838
0.00903752
0.00877234
0.00837518
0.00788349
0.00734113
0.00677432
0.00620372
0.00564592
0.00511282
0.00460879
0.0041243
0.00364817
0.00317107
0.00268629
0.00219818
0.00173087
0.00129575
0.000637144
0.0342495
0.0188474
0.0131266
0.0114139
0.0107921
0.0104609
0.0101689
0.00983478
0.00942917
0.00894181
0.0083686
0.00776285
0.00714548
0.00653444
0.0059454
0.0053901
0.00487331
0.00438887
0.00392338
0.00346079
0.00298365
0.00248183
0.0019646
0.00144296
0.000693316
0.0440843
0.0274785
0.0178705
0.0141401
0.01257
0.0116763
0.0110182
0.0104285
0.00984705
0.00924912
0.0086233
0.00796614
0.00731718
0.006685
0.00608069
0.00551491
0.00499266
0.00450972
0.0040531
0.00360434
0.0031414
0.00264476
0.00210821
0.00152739
0.00071423
0.0513805
0.0363997
0.0237484
0.0175436
0.0147077
0.0130865
0.011949
0.0110432
0.0102505
0.00951895
0.00882183
0.00814124
0.0074632
0.00681183
0.00618993
0.00560787
0.00507212
0.00458124
0.0041237
0.00367963
0.00322504
0.00273524
0.00219265
0.00157423
0.000715452
0.0563484
0.0448682
0.0303994
0.0217443
0.0173456
0.0148223
0.0131192
0.0118162
0.0107593
0.00985963
0.00906691
0.00834406
0.00765993
0.00699269
0.00634294
0.00573064
0.00516456
0.00464954
0.00417699
0.00372575
0.00327049
0.00278332
0.00223829
0.00159618
0.000705113
0.0598688
0.0516295
0.0369701
0.0266807
0.0205809
0.0169668
0.0145794
0.0128279
0.0114471
0.0103303
0.00940953
0.00862316
0.00791598
0.00724177
0.00657484
0.00591844
0.00529915
0.00473987
0.00423529
0.00376333
0.00329733
0.00280662
0.00225829
0.00160016
0.000686831
0.0624101
0.0570072
0.0431337
0.0318863
0.0242879
0.0195181
0.0163406
0.0140731
0.0123412
0.0109657
0.00987686
0.00900014
0.00825413
0.00756404
0.00687478
0.00617494
0.00549623
0.00487299
0.00431465
0.00380503
0.00331673
0.00281552
0.00226105
0.0015905
0.000662174
0.0641861
0.0611146
0.0487602
0.0370379
0.0283016
0.0224419
0.0184334
0.0155746
0.0134438
0.0117828
0.0104887
0.00948879
0.00868355
0.00796947
0.00725721
0.00650804
0.00575099
0.00504288
0.00441383
0.00385611
0.0033376
0.00281951
0.00225554
0.00157378
0.000633658
0.0653433
0.0641294
0.0536929
0.0419683
0.0324941
0.0256403
0.0208164
0.0173487
0.014774
0.0127952
0.0112712
0.0101079
0.00921226
0.00846401
0.00773676
0.00694457
0.00609464
0.00527102
0.00454192
0.00391667
0.00335664
0.00281549
0.00223901
0.001547
0.00060905
0.0659875
0.0662577
0.0577632
0.0464824
0.0366695
0.0289773
0.0234131
0.0193685
0.0163577
0.0140519
0.0122524
0.0108877
0.00986359
0.00905998
0.00832319
0.00750987
0.0065686
0.00559638
0.00472184
0.00399727
0.00337788
0.00280447
0.00221105
0.00150832
0.000584845
0.0661829
0.0676083
0.0608917
0.050465
0.0405073
0.0322956
0.0261357
0.0215857
0.0181775
0.0155515
0.0134798
0.0118766
0.0106778
0.00977559
0.00901719
0.00821533
0.00721754
0.00607863
0.00500626
0.00411897
0.00340829
0.00278838
0.00217198
0.0014583
0.000559172
0.0659411
0.0682458
0.0631206
0.053839
0.043998
0.0355707
0.0289185
0.0239469
0.0202027
0.0172988
0.0149747
0.013123
0.0117146
0.0106505
0.00981833
0.00903468
0.00805942
0.00679324
0.00547248
0.00434425
0.00347829
0.00277945
0.00212619
0.00139925
0.00053131
0.06526
0.0682197
0.0645267
0.0565096
0.0470413
0.0385912
0.0316625
0.0263881
0.0223909
0.0192759
0.0167595
0.0147033
0.0130474
0.0117654
0.0107632
0.00992612
0.00902762
0.00779291
0.00625466
0.00478849
0.00365669
0.00281175
0.00208921
0.00133875
0.000501765
0.0641414
0.0675658
0.0651474
0.058399
0.0496693
0.041335
0.0343655
0.0288676
0.0246972
0.0214466
0.0188169
0.0166324
0.0147914
0.0132415
0.0119798
0.0109358
0.0100073
0.00891867
0.00742411
0.00564694
0.0040565
0.00295016
0.00209907
0.00129801
0.000473182
0.0626015
0.0663196
0.0650225
0.0595395
0.0518154
0.0437715
0.0368836
0.0313315
0.0270735
0.0237657
0.0211098
0.018898
0.0169721
0.0152407
0.0136773
0.0122999
0.0110859
0.00996728
0.00866225
0.00696896
0.00502363
0.00334461
0.00222917
0.00132756
0.000453183
0.06068
0.0645293
0.0641964
0.0599593
0.0533451
0.0459469
0.039222
0.0337692
0.0294787
0.0261792
0.0235775
0.0214445
0.0195686
0.0178043
0.0160715
0.0143561
0.0127144
0.0111617
0.00972112
0.00816667
0.00639427
0.00444822
0.00271124
0.00155825
0.000470685
0.058507
0.0623252
0.0627663
0.0596895
0.0542009
0.0476975
0.0413167
0.0360027
0.0318409
0.0285846
0.0260954
0.0241294
0.0224421
0.0208386
0.019174
0.0173615
0.0153808
0.0132926
0.0112029
0.00922691
0.0073181
0.00551594
0.00387639
0.00233919
0.000885876
0.0561184
0.0597548
0.0607928
0.0587776
0.0544269
0.0488794
0.0431886
0.0380618
0.0340195
0.0309024
0.0285271
0.0267558
0.0253313
0.0240319
0.0226683
0.0210851
0.0191691
0.0168699
0.0142187
0.0114078
0.00864935
0.00620729
0.00423127
0.00280558
0.00197962
0.0536075
0.0569133
0.0583518
0.0572662
0.0540265
0.0494875
0.0445611
0.0399575
0.0360678
0.0330756
0.0308572
0.0292555
0.0281007
0.0271661
0.0262498
0.0251694
0.0237537
0.0218454
0.0193305
0.0162059
0.0126605
0.0091118
0.00610567
0.00408535
0.00321088
0.0510911
0.0539315
0.0555565
0.0552212
0.0530056
0.0494909
0.0454062
0.0413961
0.0378863
0.03508
0.0329799
0.0315475
0.0305944
0.0299776
0.0295035
0.0290009
0.0283036
0.0272305
0.0255853
0.0231839
0.0199594
0.0160496
0.0119867
0.00850632
0.00620681
0.0486929
0.0509635
0.0525579
0.0527507
0.051412
0.0488697
0.0456592
0.0423194
0.039265
0.036742
0.0348447
0.0335565
0.0327497
0.0323304
0.0321702
0.0321207
0.0320495
0.0318138
0.0312574
0.0301981
0.028484
0.0260314
0.0229063
0.0193551
0.0157472
0.0465286
0.048174
0.0495419
0.0500142
0.0493458
0.0476579
0.0452949
0.0426678
0.0401406
0.0379697
0.036296
0.0351578
0.0345032
0.034226
0.0342186
0.0344266
0.034742
0.0350501
0.0352326
0.0351622
0.0347101
0.0337716
0.0322688
0.0301759
0.0275278
0.0446864
0.0457153
0.0467119
0.0472206
0.0469731
0.045953
0.0443394
0.0424093
0.040448
0.0386884
0.0372862
0.0363173
0.0357777
0.0356038
0.0357034
0.0360072
0.0365012
0.0371038
0.0377157
0.0381974
0.0384472
0.0383748
0.037896
0.036943
0.03548
0.0432087
0.0436987
0.0442572
0.044605
0.0445234
0.0439336
0.0428982
0.0415748
0.0401582
0.0388321
0.0377403
0.0369718
0.0365515
0.0364504
0.0365999
0.0369731
0.0375357
0.0382518
0.0390491
0.0398323
0.0405056
0.0409773
0.0411621
0.0409885
0.0404086
0.0420787
0.0421667
0.0423106
0.0423848
0.0422572
0.041852
0.0411733
0.0402935
0.0393259
0.0383946
0.0376114
0.0370583
0.0367717
0.0367442
0.036922
0.0372966
0.0378607
0.0385892
0.0394398
0.0403497
0.0412473
0.042054
0.0426915
0.0430892
0.0431947
0.0412181
0.0410772
0.0409111
0.0407021
0.0404062
0.0399881
0.0394429
0.0388011
0.0381215
0.0374771
0.0369412
0.0365742
0.036411
0.0364543
0.0366617
0.0370159
0.0375222
0.0381765
0.038966
0.039863
0.040814
0.0417652
0.0426578
0.0434307
0.0440278
0.0404964
0.0403054
0.0399852
0.0395771
0.0391004
0.0385665
0.0379906
0.037398
0.0368245
0.0363122
0.0359044
0.0356386
0.0355404
0.035615
0.0358346
0.0361564
0.0365935
0.0371436
0.0378031
0.0385634
0.0394141
0.0403285
0.0412565
0.0421605
0.0429962
0.03975
0.0396658
0.0393598
0.0388931
0.0383163
0.0376735
0.0370052
0.0363493
0.0357415
0.0352149
0.0347987
0.0345167
0.0343848
0.0344088
0.0345759
0.0348469
0.0351913
0.0356201
0.0361296
0.0367159
0.0373741
0.0380982
0.0388856
0.0397102
0.0405312
0.0388066
0.0389467
0.0388001
0.0384249
0.0378785
0.0372178
0.0364979
0.0357693
0.0350764
0.034456
0.0339371
0.0335408
0.0332803
0.0331613
0.0331818
0.0333254
0.0335662
0.0338564
0.0342012
0.034603
0.0350583
0.0355631
0.0361142
0.0367069
0.0373375
0.0375112
0.037945
0.0380583
0.037897
0.0375118
0.0369569
0.0362886
0.0355615
0.0348256
0.0341237
0.0334899
0.0329493
0.0325187
0.0322072
0.0320179
0.0319473
0.0319859
0.0321112
0.032307
0.0325367
0.0327989
0.0330934
0.0334212
0.0337801
0.0341646
0.0357445
0.0364954
0.0369179
0.0370451
0.0369158
0.0365742
0.0360692
0.0354511
0.0347688
0.0340665
0.0333818
0.0327446
0.032177
0.0316935
0.0313028
0.0310082
0.0308088
0.0306987
0.0306691
0.0307036
0.0307917
0.0309226
0.0310754
0.0312435
0.0314257
0.0334432
0.0344927
0.0352256
0.0356632
0.0358326
0.0357667
0.0355038
0.0350857
0.0345549
0.0339524
0.033315
0.0326743
0.0320556
0.0314782
0.0309556
0.0304965
0.0301059
0.029785
0.0295325
0.0293438
0.0292133
0.0291342
0.0290955
0.0290887
0.029108
0.0306321
0.0319231
0.0329236
0.0336446
0.0341032
0.0343217
0.034328
0.0341546
0.033836
0.0334071
0.0329009
0.0323473
0.031772
0.031196
0.0306359
0.030104
0.0296093
0.0291574
0.0287516
0.0283929
0.0280807
0.0278128
0.0275854
0.0273949
0.0272372
0.0274742
0.0289104
0.0300932
0.0310239
0.0317115
0.0321703
0.0324189
0.0324806
0.0323822
0.0321517
0.031817
0.0314041
0.0309366
0.0304351
0.029917
0.029396
0.0288833
0.0283871
0.0279134
0.0274662
0.027048
0.0266598
0.0263017
0.0259732
0.025674
0.0242869
0.0257163
0.0269496
0.0279784
0.0287924
0.0293955
0.0298041
0.030035
0.0301082
0.0300452
0.029868
0.029598
0.0292554
0.0288584
0.0284231
0.0279632
0.0274901
0.027013
0.0265393
0.0260744
0.0256224
0.0251863
0.0247679
0.0243683
0.0239898
0.0213349
0.0225999
0.0237165
0.0246779
0.025478
0.0261042
0.0265515
0.0268391
0.0269843
0.0270044
0.026917
0.026739
0.0264865
0.0261746
0.0258168
0.025425
0.0250096
0.0245792
0.0241409
0.0237005
0.0232624
0.0228301
0.0224049
0.0219917
0.0215922
0.0181726
0.0190998
0.0199069
0.0205916
0.0211398
0.0215632
0.0218641
0.0220524
0.0221389
0.0221348
0.0220517
0.0219007
0.0216926
0.0214373
0.0211443
0.0208217
0.0204769
0.0201162
0.019745
0.0193678
0.0189883
0.0186095
0.0182339
0.0178636
0.0175011
0.00921667
0.00960619
0.00994891
0.0102495
0.0104968
0.010696
0.0108501
0.010962
0.0110344
0.0110705
0.0110738
0.0110477
0.0109956
0.0109209
0.0108268
0.0107164
0.0105924
0.0104576
0.0103142
0.0101643
0.01001
0.00985271
0.00969397
0.00953509
0.00937715
0.000751087
0.000667744
0.00164619
0.00209798
0.00221169
0.00229858
0.00309166
0.00319196
0.0035236
0.00540236
0.00527789
0.00544165
0.0125951
0.0109357
0.0100943
0.0244393
0.0216786
0.0194958
0.0336008
0.0314835
0.0293128
0.0394688
0.0382778
0.0368226
0.0429957
0.042555
0.0418765
0.0443835
0.0445411
0.0445041
0.0436702
0.0442242
0.0446557
0.0412601
0.0419451
0.0425852
0.03793
0.0385209
0.0391143
0.0345331
0.0349209
0.0353298
0.0316025
0.0317902
0.0319929
0.0291444
0.029196
0.0292613
0.0271203
0.0270244
0.0269455
0.0254288
0.0252047
0.0249972
0.0236684
0.0233641
0.0230725
0.0212473
0.0209147
0.0205907
0.0171864
0.0168795
0.0165787
0.0092396
0.00910424
0.00897117
0.000129667
0.000299005
0.00046759
0.000610919
0.000737809
0.000849721
0.000951816
0.00104609
0.00113395
0.00121635
0.00129398
0.00136734
0.00143687
0.00150291
0.00156579
0.00162577
0.00168311
0.00173804
0.00179078
0.00184155
0.00189052
0.0019379
0.00198387
0.00202861
0.00207229
0.00211509
0.00215718
0.00219874
0.00223994
0.00228096
0.00232198
0.00236319
0.00240477
0.00244691
0.00248983
0.00253374
0.00257885
0.00262542
0.00267371
0.00272402
0.0027767
0.00283212
0.00289075
0.00295312
0.00301988
0.00309182
0.00316825
0.00324767
0.00333003
0.00341529
0.00350344
0.00359459
0.00368877
0.00378602
0.00388628
0.00398943
0.00409526
0.0042034
0.00431331
0.00442419
0.00453491
0.00464394
0.00474913
0.00484763
0.00493556
0.00500777
0.00505743
0.00507539
0.00504935
0.00496382
0.00479759
0.00456268
0.00425499
0.00380435
0.0032538
0.00263865
0.00199628
0.00147687
0.00105438
0.000640297
0.000480228
0.000890614
0.00111948
0.001315
0.00152332
0.0017425
0.00196138
0.00217982
0.00239575
0.00260726
0.00281264
0.00301065
0.00320052
0.00338191
0.00355475
0.00371922
0.00387559
0.00402424
0.00416557
0.00430001
0.00442799
0.00454995
0.00466632
0.00477752
0.00488397
0.00498609
0.00508428
0.00517894
0.00527047
0.00535926
0.00544569
0.00553018
0.00561313
0.00569496
0.00577608
0.00585694
0.00593797
0.0060196
0.00610229
0.00618651
0.00627274
0.00636146
0.00645319
0.00654841
0.00664756
0.00675132
0.00686182
0.00697989
0.00710375
0.00723334
0.0073689
0.00751073
0.00765911
0.00781425
0.00797633
0.00814538
0.00832127
0.00850357
0.00869148
0.0088837
0.0090782
0.00927205
0.00946108
0.00963947
0.00979926
0.00992959
0.0100159
0.0100398
0.00997881
0.00981121
0.0095072
0.00904067
0.00838519
0.00752542
0.00644868
0.00513211
0.00374085
0.00243154
0.00147427
0.000702206
0.000690079
0.00130793
0.00158253
0.00185008
0.00216234
0.0024998
0.00284572
0.00319177
0.00353074
0.00385787
0.00417031
0.00446681
0.00474715
0.0050118
0.00526152
0.00549723
0.00571983
0.00593019
0.0061291
0.00631728
0.00649539
0.00666406
0.00682384
0.00697528
0.0071189
0.0072552
0.00738465
0.0075077
0.00762479
0.00773632
0.00784268
0.00794426
0.00804145
0.00813466
0.00822432
0.00831088
0.00839479
0.00847648
0.00855641
0.00863502
0.0087128
0.00879027
0.008868
0.00894659
0.00902665
0.00910886
0.0091939
0.00928449
0.00938093
0.00948232
0.00958883
0.0097008
0.00981857
0.00994247
0.0100727
0.0102095
0.0103526
0.0105015
0.0106553
0.0108123
0.0109698
0.0111243
0.0112706
0.011402
0.0115094
0.0115814
0.0116035
0.0115581
0.0114217
0.0111726
0.0107993
0.0102802
0.00959145
0.008711
0.00761595
0.00628503
0.00477197
0.00315555
0.00166401
0.000640565
0.000828406
0.00161262
0.00195708
0.0023078
0.00271617
0.0031544
0.00360092
0.0040411
0.00446574
0.00487002
0.00525213
0.00561216
0.00595124
0.00627092
0.00657275
0.00685818
0.00712842
0.00738451
0.00762728
0.00785744
0.00807557
0.00828221
0.00847784
0.00866293
0.00883792
0.00900327
0.0091594
0.00930675
0.00944573
0.00957674
0.00970013
0.00981622
0.00992534
0.0100279
0.0101243
0.0102151
0.0103007
0.0103817
0.0104585
0.0105314
0.0106007
0.010667
0.0107305
0.0107917
0.0108512
0.0109096
0.0109676
0.0110261
0.0110886
0.011154
0.0112224
0.0112943
0.0113702
0.0114504
0.0115353
0.0116251
0.01172
0.0118196
0.0119231
0.0120288
0.0121343
0.0122358
0.0123283
0.012405
0.0124576
0.0124757
0.0124469
0.0123572
0.0121911
0.0119324
0.0115648
0.0110721
0.0104339
0.00962518
0.00861635
0.00737113
0.00584815
0.00404413
0.00208289
0.000621091
0.000924701
0.00182548
0.00225893
0.00269705
0.00319049
0.00370936
0.00422844
0.00473222
0.00521238
0.00566591
0.00609303
0.00649548
0.0068756
0.00723569
0.00757774
0.00790334
0.00821369
0.00850966
0.00879189
0.0090608
0.00931675
0.00955999
0.00979076
0.0100093
0.0102158
0.0104107
0.0105941
0.0107665
0.0109283
0.0110796
0.011221
0.0113525
0.0114746
0.0115874
0.0116914
0.0117874
0.0118761
0.0119582
0.0120341
0.0121043
0.0121691
0.0122288
0.0122837
0.0123339
0.0123798
0.0124218
0.0124604
0.0124961
0.0125304
0.0125653
0.0126006
0.0126372
0.0126757
0.0127169
0.0127615
0.0128102
0.0128636
0.0129222
0.0129858
0.0130534
0.0131229
0.0131914
0.0132542
0.0133049
0.0133356
0.0133361
0.0132945
0.0131968
0.0130282
0.0127739
0.0124199
0.0119528
0.0113594
0.0106241
0.00972197
0.00860122
0.00716377
0.00527079
0.00282103
0.000701287
0.00098624
0.00197608
0.00250441
0.00302456
0.00358884
0.0041674
0.00473525
0.00527868
0.00579236
0.006276
0.00673186
0.00716319
0.0075732
0.00796463
0.0083396
0.0086996
0.00904559
0.00937814
0.00969751
0.0100038
0.0102969
0.0105767
0.0108432
0.0110963
0.0113358
0.0115618
0.0117745
0.0119739
0.0121603
0.0123338
0.0124949
0.0126435
0.0127797
0.0129038
0.0130164
0.0131182
0.0132104
0.0132942
0.0133704
0.0134395
0.0135018
0.0135576
0.0136073
0.013651
0.013689
0.0137215
0.0137487
0.0137708
0.0137876
0.0138006
0.0138108
0.0138196
0.0138279
0.0138372
0.0138487
0.013864
0.0138847
0.0139123
0.0139477
0.013991
0.0140414
0.0140965
0.0141528
0.0142046
0.0142445
0.0142625
0.0142463
0.0141814
0.014051
0.0138371
0.0135213
0.0130865
0.0125181
0.0118039
0.0109292
0.00985953
0.00849999
0.00665465
0.00407664
0.000932999
0.00102633
0.00208636
0.00270297
0.00329427
0.00391344
0.0045325
0.00512958
0.00569478
0.00622629
0.00672658
0.00719983
0.00765043
0.00808222
0.00849816
0.00890033
0.00928999
0.00966779
0.0100339
0.0103881
0.0107302
0.0110595
0.0113757
0.0116782
0.0119665
0.0122403
0.0124992
0.012743
0.0129716
0.013185
0.0133832
0.0135661
0.0137335
0.0138849
0.0140215
0.0141447
0.0142555
0.0143552
0.0144447
0.0145247
0.0145957
0.014658
0.0147121
0.0147582
0.0147967
0.0148278
0.0148519
0.0148693
0.0148803
0.0148849
0.0148841
0.0148785
0.0148682
0.0148533
0.0148369
0.0148213
0.0148091
0.0148031
0.0148062
0.0148205
0.0148477
0.0148881
0.0149407
0.0150029
0.0150702
0.015136
0.015191
0.0152228
0.0152161
0.015152
0.0150089
0.0147623
0.0143868
0.0138577
0.013154
0.0122585
0.0111491
0.00976032
0.00791059
0.00525856
0.00126498
0.00105376
0.00216858
0.00286117
0.00351022
0.00416848
0.00481158
0.0054226
0.00599614
0.00653392
0.00704091
0.00752288
0.00798517
0.00843205
0.00886658
0.0092907
0.00970542
0.010111
0.0105072
0.0108934
0.0112689
0.0116326
0.0119837
0.0123214
0.0126447
0.0129529
0.0132454
0.0135216
0.0137811
0.0140235
0.0142485
0.0144557
0.0146441
0.0148148
0.0149697
0.0151098
0.0152364
0.0153504
0.015452
0.0155417
0.0156199
0.0156868
0.0157425
0.0157874
0.0158217
0.0158458
0.0158604
0.015866
0.0158636
0.0158541
0.0158398
0.0158202
0.0157954
0.0157646
0.015729
0.0156912
0.0156559
0.0156272
0.0156094
0.0156062
0.0156206
0.0156541
0.0157072
0.0157787
0.0158655
0.0159621
0.0160602
0.0161484
0.0162113
0.0162293
0.0161781
0.0160283
0.0157462
0.0152946
0.0146352
0.0137326
0.0125556
0.0110563
0.00910082
0.00634119
0.001763
0.00107332
0.00223045
0.00298489
0.0036777
0.0043606
0.00501414
0.00562715
0.00619873
0.00673385
0.00723968
0.00772334
0.00819089
0.00864694
0.00909457
0.00953554
0.00997056
0.0103995
0.0108218
0.0112362
0.0116417
0.0120369
0.0124204
0.012791
0.0131476
0.0134889
0.0138141
0.0141223
0.0144128
0.014685
0.0149382
0.0151719
0.0153863
0.015584
0.0157647
0.0159282
0.0160758
0.0162081
0.0163258
0.0164292
0.0165185
0.0165937
0.016655
0.0167026
0.0167368
0.0167578
0.0167664
0.0167634
0.01675
0.0167273
0.0166967
0.0166601
0.0166189
0.0165744
0.0165248
0.0164701
0.0164162
0.0163686
0.016333
0.0163145
0.0163173
0.0163445
0.0163976
0.0164771
0.0165814
0.0167065
0.0168458
0.0169893
0.0171227
0.0172268
0.0172765
0.0172398
0.0170773
0.016741
0.0161754
0.0153201
0.0141152
0.0124989
0.0103671
0.0074173
0.00225023
0.00108765
0.00227714
0.00307973
0.00380308
0.00449808
0.00515108
0.00575663
0.00631812
0.00684345
0.00734168
0.00782107
0.00828828
0.00874812
0.00920365
0.00965644
0.0101069
0.0105545
0.0109982
0.0114366
0.0118679
0.0122905
0.0127027
0.0131028
0.0134893
0.0138609
0.0142163
0.0145544
0.0148743
0.0151753
0.0154567
0.0157187
0.0159627
0.0161892
0.0163965
0.0165848
0.0167551
0.0169081
0.0170446
0.0171647
0.0172686
0.0173563
0.0174277
0.0174831
0.0175224
0.017546
0.0175544
0.0175486
0.0175297
0.0174991
0.0174584
0.0174103
0.0173564
0.0172982
0.0172367
0.0171698
0.0171025
0.0170409
0.0169916
0.0169607
0.0169534
0.0169742
0.0170259
0.0171105
0.0172281
0.0173765
0.0175512
0.017744
0.0179425
0.0181291
0.0182794
0.0183611
0.0183315
0.0181361
0.0177056
0.0169562
0.0157919
0.0141097
0.0117878
0.00856375
0.00280694
0.0010986
0.00231259
0.00315133
0.00389362
0.0045903
0.00523391
0.0058245
0.0063694
0.00687915
0.00736442
0.00783446
0.00829637
0.0087551
0.00921364
0.00967334
0.0101343
0.0105956
0.0110559
0.0115132
0.0119656
0.012411
0.0128472
0.0132723
0.0136846
0.0140824
0.0144643
0.0148289
0.0151754
0.0155029
0.015811
0.0161003
0.0163718
0.0166253
0.0168587
0.0170717
0.0172651
0.01744
0.0175968
0.017736
0.0178575
0.0179615
0.0180477
0.0181161
0.0181666
0.0181994
0.0182148
0.0182135
0.0181967
0.0181659
0.0181229
0.0180706
0.0180111
0.0179459
0.0178761
0.0178022
0.0177277
0.0176582
0.0176004
0.0175611
0.0175464
0.0175615
0.017611
0.0176981
0.0178245
0.0179904
0.0181933
0.0184275
0.0186831
0.0189448
0.0191903
0.0193881
0.0194953
0.0194534
0.0191845
0.0185859
0.0175273
0.0158522
0.0133776
0.00982423
0.00343946
0.00110783
0.00234069
0.00320586
0.00395752
0.00464747
0.00527465
0.00584429
0.00636737
0.0068568
0.00732469
0.00778104
0.00823332
0.00868652
0.00914351
0.00960539
0.0100719
0.010542
0.0110137
0.011485
0.0119533
0.0124162
0.0128715
0.0133168
0.0137501
0.0141695
0.0145735
0.0149608
0.0153302
0.015681
0.016013
0.0163264
0.0166221
0.0169004
0.0171585
0.0173954
0.0176118
0.0178089
0.0179872
0.0181473
0.0182891
0.0184127
0.0185178
0.0186042
0.0186717
0.0187202
0.0187498
0.0187609
0.0187543
0.0187315
0.0186945
0.0186462
0.018589
0.0185244
0.0184537
0.0183793
0.0183044
0.0182337
0.0181737
0.0181312
0.0181128
0.0181245
0.018172
0.0182599
0.0183918
0.0185698
0.018794
0.0190615
0.0193653
0.0196932
0.0200258
0.020334
0.0205761
0.0206927
0.0206005
0.020183
0.0192806
0.0176819
0.0151161
0.0112073
0.00416965
0.00111747
0.00236629
0.00325082
0.00400445
0.00468106
0.00528614
0.00582998
0.00632702
0.00679232
0.0072392
0.00767825
0.00811715
0.00856086
0.00901207
0.00947165
0.00993909
0.0104129
0.010891
0.0113708
0.0118497
0.0123251
0.0127942
0.0132546
0.013704
0.0141405
0.0145624
0.0149681
0.0153568
0.0157275
0.0160801
0.0164145
0.0167314
0.0170319
0.017313
0.0175729
0.0178122
0.0180318
0.0182326
0.018415
0.0185792
0.0187251
0.0188526
0.0189613
0.0190509
0.019121
0.0191713
0.0192018
0.019213
0.0192062
0.0191831
0.0191468
0.0190995
0.019043
0.0189794
0.0189124
0.0188445
0.01878
0.0187246
0.0186848
0.0186674
0.018679
0.018726
0.0188144
0.0189495
0.0191355
0.0193749
0.0196679
0.020011
0.0203957
0.0208065
0.0212178
0.0215906
0.0218669
0.0219611
0.0217474
0.0210416
0.0195806
0.0169968
0.0127129
0.00505646
0.00113074
0.00239681
0.0032967
0.00404686
0.00470473
0.00528293
0.0057969
0.00626444
0.00670253
0.00712546
0.00754422
0.00796653
0.00839724
0.0088388
0.00929182
0.00975555
0.0102283
0.0107076
0.0111908
0.0116751
0.0121576
0.0126354
0.013106
0.0135669
0.014016
0.0144515
0.014872
0.0152763
0.0156636
0.0160337
0.0163863
0.0167221
0.0170425
0.0173449
0.0176271
0.017889
0.0181316
0.0183555
0.0185615
0.0187498
0.0189203
0.019073
0.0192074
0.0193231
0.0194195
0.019496
0.0195521
0.0195877
0.0196037
0.0196017
0.0195844
0.0195541
0.0195131
0.0194654
0.0194136
0.0193601
0.0193088
0.0192647
0.0192339
0.0192228
0.0192385
0.0192878
0.0193777
0.019515
0.0197058
0.0199553
0.0202667
0.0206405
0.0210724
0.0215516
0.0220575
0.0225556
0.0229914
0.0232803
0.0232919
0.0228227
0.0215607
0.0190432
0.0144867
0.00619236
0.00115405
0.00244592
0.00335957
0.00410181
0.00473591
0.00528264
0.00576294
0.00619793
0.00660624
0.00700284
0.00739886
0.00780188
0.0082165
0.00864485
0.00908728
0.00954285
0.0100097
0.0104853
0.0109668
0.0114513
0.0119358
0.0124174
0.0128935
0.0133613
0.0138188
0.0142642
0.0146958
0.0151125
0.0155135
0.0158983
0.0162666
0.0166192
0.0169575
0.0172798
0.0175835
0.0178679
0.0181337
0.0183816
0.0186123
0.018826
0.0190228
0.0192027
0.0193653
0.01951
0.0196363
0.0197432
0.0198298
0.0198954
0.0199403
0.0199655
0.0199735
0.0199666
0.0199492
0.0199247
0.0198952
0.019863
0.0198315
0.0198051
0.0197892
0.0197901
0.0198145
0.0198697
0.0199632
0.0201029
0.0202967
0.020552
0.0208753
0.0212709
0.0217395
0.0222761
0.0228664
0.0234823
0.0240753
0.0245666
0.024827
0.0246407
0.0236483
0.0212861
0.016576
0.00774605
0.00119805
0.00253997
0.00346438
0.00419188
0.00479629
0.00530654
0.00574923
0.00614885
0.0065253
0.00689376
0.00726517
0.00764677
0.00804282
0.00845471
0.00888268
0.00932574