/*--------------------------------*- C++ -*----------------------------------*\
| =========                 |                                                 |
| \\      /  F ield         | OpenFOAM: The Open Source CFD Toolbox           |
|  \\    /   O peration     | Version:  v2012                                 |
|   \\  /    A nd           | Website:  www.openfoam.com                      |
|    \\/     M anipulation  |                                                 |
\*---------------------------------------------------------------------------*/
FoamFile
{
    version     2.0;
    format      ascii;
    class       volScalarField;
    location    "604";
    object      nut;
}
// * * * * * * * * * * * * * * * * * * * * * * * * * * * * * * * * * * * * * //

dimensions      [0 2 -1 0 0 0 0];


internalField   nonuniform List<scalar> 
6532
(
0.00244258
0.00856789
0.0101298
0.0103761
0.0103439
0.0103439
0.0103761
0.0101298
0.00856789
0.00244258
0.00188689
0.00713262
0.00938104
0.00995606
0.0100285
0.0100285
0.00995607
0.00938105
0.00713262
0.00188689
0.00153816
0.00619689
0.00868984
0.00952617
0.00971754
0.00971754
0.00952618
0.00868984
0.0061969
0.00153816
0.00130317
0.00552926
0.00808391
0.00910378
0.00940319
0.00940319
0.00910378
0.00808392
0.00552927
0.00130317
0.00113554
0.00502377
0.00756034
0.00869983
0.00908648
0.00908648
0.00869984
0.00756036
0.00502379
0.00113554
0.00101035
0.00462425
0.00710762
0.00831957
0.00877142
0.00877143
0.00831959
0.00710765
0.00462428
0.00101035
0.000913333
0.00429793
0.00671341
0.00796456
0.00846219
0.0084622
0.00796459
0.00671345
0.00429798
0.000913336
0.000835861
0.00402444
0.00636692
0.00763437
0.00816207
0.00816209
0.00763442
0.00636699
0.00402451
0.000835864
0.00077245
0.00379044
0.00605941
0.0073276
0.00787333
0.00787335
0.00732767
0.00605951
0.00379055
0.000772455
0.000719481
0.00358686
0.00578395
0.00704246
0.00759729
0.00759733
0.00704257
0.0057841
0.00358701
0.000719489
0.000674476
0.0034073
0.00553512
0.0067771
0.00733458
0.00733465
0.00677727
0.00553536
0.00340753
0.000674487
0.000635684
0.00324712
0.00530869
0.00652975
0.0070853
0.0070854
0.00653
0.00530904
0.00324745
0.000635699
0.000601838
0.00310287
0.00510129
0.00629875
0.00684922
0.00684936
0.00629912
0.00510181
0.00310336
0.000601861
0.000571999
0.00297192
0.00491027
0.00608262
0.00662585
0.00662608
0.00608317
0.00491104
0.00297264
0.000572031
0.000545453
0.00285223
0.00473347
0.00588001
0.00641462
0.00641495
0.00588082
0.0047346
0.00285329
0.000545498
0.000521651
0.00274219
0.00456913
0.00568969
0.00621484
0.00621532
0.00569091
0.00457078
0.00274371
0.000521716
0.000500163
0.00264046
0.00441575
0.00551059
0.00602581
0.00602649
0.00551241
0.00441817
0.00264265
0.000500254
0.000480645
0.00254596
0.00427211
0.00534171
0.00584683
0.00584777
0.00534434
0.00427566
0.00254903
0.000480772
0.000462818
0.00245777
0.00413709
0.00518211
0.00567716
0.00567849
0.00518585
0.00414235
0.00246204
0.000462994
0.000446454
0.00237503
0.00400966
0.00503083
0.00551599
0.00551786
0.00503614
0.00401715
0.00237987
0.000446681
0.000431069
0.0022957
0.00388698
0.00488484
0.00536033
0.00536303
0.0048928
0.00390061
0.00232355
0.000488342
0.000416843
0.00222065
0.00377038
0.00474575
0.00521197
0.00521587
0.00475786
0.00379434
0.00227823
0.000545445
0.000403636
0.00214942
0.00365938
0.00461321
0.00507068
0.00507626
0.00463115
0.00369759
0.00224865
0.000617859
0.000391328
0.00208154
0.00355335
0.00448659
0.00493588
0.00494346
0.00451153
0.0036081
0.00224801
0.000712488
0.000379816
0.00201657
0.00345171
0.00436529
0.00480697
0.00481663
0.00439683
0.00353203
0.0022695
0.000835497
0.000369009
0.00195413
0.00335394
0.00424879
0.00468347
0.00469571
0.00428774
0.00346953
0.00230191
0.000987777
0.000358828
0.00189386
0.00325954
0.00413655
0.00456496
0.00458079
0.0041884
0.00341464
0.00233706
0.00116605
0.000349204
0.0018354
0.00316802
0.0040281
0.00445109
0.00447176
0.00409783
0.00336832
0.00237487
0.00136395
0.000340074
0.0017784
0.00307889
0.00392295
0.00434148
0.00436841
0.00401529
0.00333003
0.00241872
0.0015688
0.000331381
0.00172253
0.00299167
0.00382062
0.00423576
0.00427045
0.00394015
0.00329957
0.00247
0.00176645
0.000323072
0.00166742
0.00290587
0.00372063
0.00413353
0.00417754
0.00387191
0.00327679
0.00252872
0.00195427
0.000315098
0.00161277
0.00282096
0.00362246
0.00403437
0.00408931
0.00381012
0.00326142
0.00259373
0.00213021
0.000307412
0.00155828
0.00273644
0.00352558
0.0039378
0.00400534
0.00375427
0.00325284
0.00266167
0.00229243
0.00029997
0.0015036
0.00265175
0.0034294
0.00384331
0.00392513
0.00370382
0.00325023
0.00273092
0.00243974
0.000292729
0.00144842
0.00256636
0.00333331
0.0037503
0.00384812
0.00365811
0.00325259
0.00279969
0.00257134
0.000285645
0.00139247
0.0024797
0.00323665
0.00365813
0.00377365
0.00361635
0.00325872
0.00286624
0.00268685
0.000278677
0.00133555
0.00239123
0.00313872
0.00356606
0.00370097
0.00357764
0.00326738
0.00292913
0.00278631
0.000271785
0.00127764
0.00230054
0.00303892
0.00347342
0.00362929
0.00354101
0.00327734
0.00298727
0.00287028
0.000265181
0.00122061
0.00221037
0.00293986
0.00338228
0.0035598
0.00350629
0.00328685
0.00303825
0.00293775
0.00025857
0.00116245
0.00211739
0.00283777
0.00328898
0.00348935
0.00347129
0.00329521
0.00308389
0.00299355
0.000251912
0.00110325
0.0020212
0.00273167
0.00319221
0.00341647
0.00343447
0.00330115
0.00312424
0.00303995
0.000245168
0.00104324
0.0019217
0.00262092
0.00309085
0.00333974
0.00339429
0.00330336
0.00315936
0.00307939
0.000238298
0.000982675
0.00181894
0.0025049
0.0029837
0.00325752
0.00334893
0.00330027
0.00318905
0.00311416
0.000231261
0.000921813
0.00171303
0.00238302
0.00286942
0.00316792
0.00329621
0.0032899
0.00321253
0.00314588
0.000224011
0.000860914
0.00160423
0.00225481
0.00274661
0.00306877
0.00323351
0.00326968
0.00322811
0.00317478
0.000216496
0.000800236
0.00149285
0.00211988
0.00261383
0.00295765
0.00315776
0.0032363
0.00323282
0.00319917
0.000208657
0.000740023
0.00137927
0.00197798
0.00246968
0.00283197
0.00306543
0.00318566
0.00322234
0.00321504
0.000200421
0.000680465
0.00126392
0.00182908
0.00231297
0.00268917
0.00295274
0.003113
0.00319107
0.00321607
0.000191695
0.000621691
0.00114729
0.00167341
0.00214291
0.00252705
0.002816
0.00301329
0.00313257
0.00319417
0.000182351
0.000563681
0.00102992
0.00151164
0.00195947
0.0023442
0.00265223
0.00288187
0.00304026
0.00314043
0.000172201
0.000506294
0.000912442
0.00134506
0.00176378
0.0021408
0.00246005
0.00271546
0.00290862
0.00304649
0.000160948
0.000449545
0.000795969
0.0011761
0.00155889
0.00191952
0.00224086
0.00251353
0.00273466
0.00290622
0.00011776
0.000396204
0.000683538
0.00100917
0.0013506
0.00168652
0.00200003
0.00227976
0.0025195
0.00271651
9.92951e-05
0.000352573
0.000584191
0.00085392
0.00114902
0.00145226
0.00174772
0.00202287
0.00226815
0.0024788
0.000113652
0.000310844
0.000509878
0.00072635
0.000971073
0.00123347
0.0014997
0.00175565
0.00199251
0.00220468
8.89065e-05
0.000303665
0.000462967
0.000639466
0.000835978
0.00105197
0.00127626
0.00150005
0.0017153
0.00191586
6.93477e-05
0.000292892
0.000441876
0.000592065
0.000750879
0.000921008
0.00110068
0.00128486
0.00146041
0.00160924
6.26662e-05
0.000272864
0.000438349
0.000570236
0.000669275
0.000759698
0.000862797
0.000978665
0.00110278
0.00122665
6.50421e-05
0.000205791
0.000402985
0.000529047
0.000639249
0.000669825
0.000703225
0.000765019
0.000853456
0.000944689
6.77005e-05
0.000109231
0.000133125
0.000162144
0.00018805
0.000211971
0.000227102
0.000239448
0.000249769
0.000258079
0.00012194
0.000159069
0.00016253
0.000167473
0.00017141
0.000173941
0.000174946
0.000174439
0.000172413
0.000169295
0.000165285
0.000160375
0.000154556
0.000148084
0.000141103
0.00013366
0.000125708
0.000117948
0.000110454
0.000102905
9.50584e-05
8.66237e-05
7.71272e-05
6.55912e-05
4.1043e-05
0.000222166
0.000528661
0.000792993
0.000940613
0.00102346
0.00107539
0.00110569
0.00111784
0.00111365
0.00109362
0.0010609
0.00101861
0.000968829
0.000913406
0.000853586
0.000789775
0.000719833
0.000626837
0.000522195
0.000420185
0.000329493
0.000254441
0.000196873
0.000150791
4.87737e-05
0.000361358
0.000641849
0.00101818
0.00133494
0.00153513
0.00166146
0.00173866
0.00177865
0.00178783
0.00177043
0.00173023
0.00167352
0.00160507
0.0015276
0.00144214
0.00134789
0.00124059
0.00110607
0.000943131
0.000766241
0.000593008
0.000439879
0.000317242
0.000216497
5.385e-05
0.000623294
0.000674677
0.00102825
0.00138707
0.00167406
0.00185664
0.00196872
0.00202962
0.00205016
0.00203792
0.00200005
0.00194436
0.00187859
0.00180655
0.00172839
0.00164098
0.00153749
0.00140484
0.0012348
0.00103388
0.000817676
0.0006087
0.000427061
0.00026682
5.61736e-05
0.000969015
0.000853815
0.00115556
0.001388
0.00167476
0.0018962
0.00203057
0.00210246
0.00212634
0.0021127
0.00207175
0.00201439
0.00195125
0.00188818
0.00182518
0.00175682
0.00167333
0.0015604
0.00140589
0.00120955
0.000981429
0.000742795
0.000517529
0.000303316
5.70145e-05
0.00122447
0.0011816
0.00133996
0.00148101
0.00168134
0.00188881
0.00203972
0.00211841
0.00214125
0.00212102
0.00207141
0.00200683
0.00194029
0.00188105
0.00183016
0.00178054
0.00171922
0.00162946
0.00149609
0.00131448
0.00108981
0.000839242
0.00058507
0.000327462
5.70633e-05
0.00143296
0.00155551
0.00155844
0.00162282
0.00176205
0.00190739
0.00204037
0.00212393
0.00214547
0.00211642
0.00205435
0.00197834
0.00190409
0.00184227
0.00179715
0.00176185
0.00172025
0.00165182
0.00153809
0.00137211
0.00115601
0.000902783
0.0006307
0.000341508
5.66495e-05
0.0016293
0.00178628
0.00178895
0.00180937
0.0018899
0.00199322
0.00208017
0.00214078
0.00215729
0.00211929
0.0020424
0.00195165
0.00186607
0.00179712
0.00175054
0.00172317
0.00169768
0.00164815
0.00155137
0.00139897
0.00119179
0.00093993
0.000657515
0.000347645
5.59103e-05
0.00181673
0.00199882
0.00202049
0.00201995
0.00205183
0.00211582
0.00217227
0.002199
0.00219085
0.00213836
0.00204462
0.00193639
0.00183616
0.00175573
0.0017012
0.00167355
0.00165693
0.00162329
0.00154369
0.00140393
0.00120496
0.000956293
0.000668955
0.000347695
5.48975e-05
0.0019957
0.00219782
0.00224596
0.0022383
0.00223792
0.00226768
0.00229627
0.0022977
0.00225906
0.00218187
0.00206636
0.0019369
0.00181802
0.00172151
0.00165329
0.0016167
0.00160117
0.00157812
0.0015138
0.00138726
0.00119853
0.000955624
0.000668189
0.000343423
5.37025e-05
0.00216632
0.00238516
0.00246117
0.00245882
0.00244183
0.00244198
0.0024454
0.00242456
0.00236094
0.00225365
0.0021117
0.00195602
0.0018132
0.00169662
0.00161012
0.00155593
0.00153093
0.00151244
0.00146362
0.00135042
0.0011722
0.000936567
0.000652662
0.000331002
5.26494e-05
0.002328
0.00255996
0.00266294
0.00267549
0.00265529
0.00263094
0.00261346
0.00257431
0.00249041
0.00235664
0.00218479
0.00199821
0.00182663
0.00168607
0.00157778
0.00149949
0.00145164
0.00142367
0.00138999
0.00129355
0.00112789
0.000901416
0.000624846
0.000313092
5.15925e-05
0.00247935
0.00272014
0.00284806
0.00287975
0.00286058
0.00282534
0.00279373
0.00274157
0.00264288
0.00248886
0.00228947
0.0020701
0.00186638
0.00169711
0.00156339
0.0014581
0.0013482
0.00128266
0.00125317
0.00118439
0.00105521
0.000853029
0.000588281
0.000292459
5.04474e-05
0.00261811
0.0028641
0.00301448
0.00306651
0.00305612
0.00302254
0.00298029
0.00292083
0.0028146
0.00264814
0.00242745
0.0021786
0.00194227
0.00173963
0.00157533
0.00144154
0.00123748
0.00111913
0.00110167
0.00106622
0.000962473
0.00079686
0.000547624
0.000271282
4.91745e-05
0.00274188
0.00298963
0.00315911
0.00323149
0.00323523
0.00320859
0.00316546
0.00310589
0.00300064
0.00283243
0.00260126
0.00233218
0.00206489
0.00182684
0.00162542
0.00145806
0.00122971
0.000989414
0.000928828
0.000936756
0.000879116
0.000739876
0.000508891
0.000252089
4.77877e-05
0.00284861
0.00309439
0.00327876
0.00337192
0.00339338
0.00337784
0.00334573
0.00329079
0.00319513
0.0030376
0.00280971
0.00253338
0.00224605
0.00197397
0.00173166
0.00152141
0.00133985
0.000981605
0.0007858
0.000757705
0.000770115
0.000682932
0.000479268
0.000238893
4.64066e-05
0.00293691
0.00317658
0.00337148
0.00348461
0.00352573
0.00352505
0.00350784
0.00346821
0.00339086
0.00325714
0.00304826
0.00278071
0.00248835
0.0021955
0.00191563
0.00165755
0.00142519
0.00121872
0.000790581
0.000612404
0.000585529
0.000601701
0.000465405
0.000240014
4.54153e-05
0.00300636
0.00323537
0.00343657
0.00356707
0.00362887
0.00364599
0.00364632
0.00363119
0.00357932
0.00348069
0.00330706
0.0030662
0.00278752
0.00249298
0.00219366
0.00189602
0.00160888
0.00133987
0.00109731
0.000649319
0.000459457
0.000393117
0.00036187
0.000270263
4.6284e-05
0.00305603
0.00326982
0.00347216
0.00361566
0.0036981
0.00373515
0.00375283
0.00376188
0.00374725
0.00369089
0.00356658
0.00337032
0.00312537
0.00285179
0.00255898
0.00224983
0.00192716
0.00159913
0.00127982
0.000987183
0.000571981
0.000339847
0.000234628
0.000174224
6.78885e-05
0.00309067
0.00328429
0.00348223
0.00363516
0.00373467
0.00379195
0.00382585
0.00385555
0.00387513
0.00386914
0.00380223
0.00366406
0.0034693
0.00323576
0.00297302
0.00268268
0.00236323
0.00201491
0.00164368
0.00126841
0.000916544
0.000620074
0.000318745
0.000184145
0.000178447
0.00311326
0.00328179
0.00346913
0.00362642
0.00373896
0.00381409
0.00386663
0.00391086
0.00395717
0.00399632
0.00399423
0.00392554
0.00379682
0.00362103
0.00340823
0.00316132
0.00287807
0.00255441
0.00218791
0.00178281
0.00135687
0.000948299
0.000612583
0.000394332
0.000298514
0.00312766
0.0032667
0.00343681
0.00359218
0.00371354
0.00380206
0.00386952
0.00392869
0.00399128
0.00405813
0.00411201
0.00411966
0.00406975
0.00396784
0.00382262
0.00363908
0.00341742
0.00315424
0.00284433
0.00248362
0.00207657
0.00163781
0.00120521
0.000838894
0.000596594
0.00313822
0.00324477
0.00339116
0.00353736
0.00366166
0.00375984
0.00383879
0.00390925
0.0039817
0.00406167
0.00414323
0.00421032
0.00424447
0.00422683
0.00416228
0.00405583
0.00391128
0.00372911
0.0034677
0.00302214
0.00255809
0.00212746
0.00175264
0.00140116
0.00104684
0.00314915
0.00322253
0.00333982
0.00346924
0.00358923
0.00369157
0.00377837
0.00385698
0.00393585
0.00402173
0.00411532
0.00420967
0.0042932
0.00435186
0.00437174
0.00434618
0.00428134
0.00411864
0.00388882
0.00362427
0.00332546
0.00299474
0.00266056
0.0023604
0.00209742
0.0031635
0.00320622
0.00329144
0.00339728
0.00350499
0.00360445
0.00369387
0.00377701
0.00385968
0.00394769
0.00404462
0.00414853
0.00425279
0.00434769
0.00438765
0.00429174
0.00418335
0.004078
0.00397646
0.00386941
0.0037427
0.00359309
0.00342602
0.00325533
0.00310003
0.00318201
0.00320031
0.00325419
0.003332
0.00342011
0.00350883
0.0035941
0.00367654
0.00375948
0.00384701
0.00394254
0.0040468
0.00415608
0.0042629
0.00417787
0.00404421
0.0039307
0.00384581
0.00378669
0.00374698
0.00371857
0.00369344
0.00366677
0.00363741
0.00360659
0.00320218
0.00320574
0.00323357
0.00328298
0.00334665
0.00341749
0.00349104
0.00356597
0.00364355
0.0037264
0.0038171
0.00391674
0.00402315
0.0041305
0.0039854
0.00381249
0.00368002
0.00358172
0.00351548
0.00347953
0.00346951
0.00347973
0.00350555
0.00354337
0.00358914
0.00321789
0.00321862
0.00322999
0.00325577
0.00329462
0.00334324
0.00339859
0.00345925
0.00352523
0.00359765
0.00367805
0.00376746
0.00386507
0.00396691
0.00387322
0.00366413
0.00349713
0.0033738
0.0032859
0.00323069
0.00320388
0.00320182
0.00322181
0.00326173
0.00331852
0.00321979
0.00322996
0.00323725
0.00324888
0.00326789
0.00329482
0.00332938
0.00337113
0.00342
0.00347644
0.00354119
0.00361484
0.00369714
0.00378592
0.0038031
0.00357024
0.00338479
0.00324879
0.00314552
0.00306993
0.00301498
0.0029873
0.00298263
0.00299892
0.00303418
0.00319649
0.00322674
0.00324258
0.00325208
0.00326082
0.00327243
0.00328896
0.00331157
0.00334108
0.00337814
0.00342334
0.00347706
0.00353925
0.003609
0.00368338
0.00363243
0.00340025
0.00322219
0.00308943
0.00298962
0.00291486
0.0028631
0.00283386
0.00282464
0.00283281
0.00313633
0.00319396
0.00322828
0.0032474
0.00325783
0.00326445
0.00327083
0.00327957
0.00329256
0.00331119
0.00333645
0.00336897
0.00340899
0.00345628
0.0035099
0.00356755
0.00362592
0.00339821
0.00320886
0.00306694
0.00295951
0.00287828
0.00281954
0.00278014
0.00275911
0.00302914
0.00311613
0.00317531
0.00321338
0.00323628
0.00324904
0.00325578
0.00325985
0.00326392
0.00327005
0.00327981
0.00329433
0.00331428
0.00334
0.00337139
0.00340793
0.00344852
0.0034909
0.00353364
0.00336821
0.00320678
0.00308264
0.00298856
0.00291796
0.00286719
0.00286643
0.00298172
0.00306785
0.00312979
0.00317239
0.0032001
0.00321688
0.00322617
0.00323089
0.00323347
0.00323588
0.00323965
0.00324592
0.00325547
0.00326877
0.00328601
0.0033071
0.00333163
0.00335897
0.00338777
0.0034174
0.00344727
0.00336658
0.00325564
0.00317112
0.00264805
0.00278632
0.00289689
0.00298292
0.00304788
0.00309527
0.0031284
0.00315037
0.00316396
0.00317161
0.0031754
0.00317707
0.00317804
0.00317941
0.00318199
0.0031864
0.00319303
0.00320208
0.00321358
0.00322738
0.00324326
0.00326089
0.00327957
0.00329883
0.0033184
0.00238277
0.00253539
0.0026639
0.00276979
0.0028551
0.00292215
0.00297341
0.00301137
0.00303838
0.00305665
0.00306816
0.00307463
0.00307757
0.0030782
0.00307756
0.00307645
0.00307553
0.00307528
0.00307605
0.00307808
0.0030815
0.00308635
0.00309257
0.00310004
0.00310861
0.00209059
0.00224625
0.00238257
0.00249964
0.00259834
0.00267997
0.00274608
0.00279838
0.00283867
0.00286873
0.00289025
0.00290477
0.0029137
0.00291825
0.00291949
0.0029183
0.00291545
0.00291154
0.00290707
0.00290245
0.00289799
0.00289391
0.0028904
0.00288757
0.00288552
0.00174524
0.00188045
0.00202056
0.00216932
0.00228989
0.00237618
0.00244867
0.00250839
0.00255653
0.00259434
0.0026231
0.00264404
0.00265832
0.00266702
0.00267109
0.00267139
0.00266866
0.00266357
0.00265664
0.00264836
0.0026391
0.0026292
0.00261893
0.00260851
0.00259822
0.00134496
0.00146558
0.00159167
0.00172563
0.00187175
0.00200281
0.00206785
0.00212184
0.00216566
0.00220019
0.00222637
0.0022451
0.00225729
0.00226378
0.00226537
0.00226281
0.00225676
0.00224781
0.0022365
0.0022233
0.00220861
0.00219279
0.0021761
0.00215893
0.00214155
0.00103504
0.0011332
0.00123858
0.0013427
0.0013876
0.00142542
0.00145594
0.00147955
0.00149676
0.00150813
0.00151424
0.00151566
0.00151297
0.00150673
0.00149746
0.00148566
0.00147177
0.00145622
0.00143936
0.00142154
0.00140302
0.00138406
0.00136488
0.00134569
0.00132669
0.000264589
0.000270123
0.000274899
0.00027902
0.000282367
0.000285034
0.00028708
0.000288556
0.000289507
0.000289981
0.000290024
0.000289682
0.000288998
0.000288015
0.000286772
0.000285305
0.000283651
0.000281839
0.0002799
0.000277859
0.000275741
0.000273567
0.000271354
0.000269121
0.000266883
7.3689e-05
7.12179e-05
3.64846e-05
0.000153566
0.000104316
0.000188724
0.000278847
0.000285187
0.000197578
0.000400992
0.000288733
0.000292648
0.000779062
0.000672278
0.000673367
0.00185588
0.00170146
0.00163884
0.00296947
0.00286701
0.00279711
0.00357645
0.00355344
0.0035377
0.00363412
0.0036774
0.00372483
0.00338194
0.00344854
0.00352124
0.00308032
0.00313564
0.00320001
0.00285226
0.00288347
0.00292499
0.00275126
0.00275646
0.00277203
0.00283197
0.0028117
0.00280228
0.00310959
0.00306588
0.00303411
0.00333616
0.00335404
0.00337225
0.00311701
0.00312615
0.003136
0.00288417
0.00288353
0.00288348
0.00258902
0.00258019
0.00257155
0.00212589
0.00211038
0.00209488
0.00131
0.00129367
0.0012776
0.000264918
0.000262971
0.000261042
2.81797e-05
4.96179e-05
6.20485e-05
5.8578e-05
7.79419e-05
8.36444e-05
8.8527e-05
9.28075e-05
9.66264e-05
0.000100076
0.00010322
0.000106105
0.00010877
0.000111241
0.000113544
0.000115699
0.000117721
0.000119627
0.000121429
0.000123138
0.000124764
0.000126318
0.000127807
0.00012924
0.000130624
0.000131966
0.000133273
0.000134551
0.000135805
0.000137043
0.00013827
0.000139492
0.000140713
0.000141941
0.000143181
0.000144437
0.000145718
0.000147027
0.000148373
0.000149763
0.000151204
0.000152706
0.000154278
0.000155934
0.000157686
0.000159553
0.000161513
0.000163525
0.000165586
0.000167692
0.000169843
0.000172038
0.000174277
0.000176559
0.000178882
0.00018124
0.000183628
0.000186037
0.000188453
0.00019086
0.000193234
0.000195543
0.000197745
0.000199785
0.000201589
0.000203058
0.000204063
0.000204425
0.0002039
0.000202165
0.000198751
0.000193825
0.000187175
0.000176986
0.00016368
0.000147398
0.000128206
0.000110273
9.31743e-05
6.26208e-05
4.76736e-05
0.000132989
0.000151431
0.000169223
0.000191708
0.000217995
0.000246356
0.000276138
0.000306688
0.000337454
0.000367976
0.000397906
0.000426995
0.000455082
0.000482073
0.000507923
0.000532622
0.000556185
0.000578643
0.000600037
0.000620419
0.00063984
0.000658359
0.000676035
0.000692928
0.000709097
0.000724604
0.000739509
0.000753873
0.000767758
0.000781226
0.000794339
0.000807161
0.000819752
0.000832171
0.00084447
0.000856691
0.000868866
0.000881015
0.000893144
0.000905242
0.000917276
0.000929195
0.000940897
0.000952188
0.000962966
0.000974013
0.000986021
0.000998458
0.00101124
0.00102433
0.00103769
0.00105129
0.00106509
0.00107902
0.00109298
0.00110687
0.00112052
0.00113372
0.00114621
0.00115764
0.00116759
0.00117551
0.00118075
0.00118252
0.00117983
0.00117153
0.00115624
0.00113251
0.00109973
0.00100734
0.000933626
0.000896395
0.000860086
0.000770488
0.000662244
0.000533026
0.000339072
0.000193371
5.76482e-05
5.71484e-05
0.000184722
0.000229595
0.000267982
0.000316881
0.000374734
0.000438864
0.000506977
0.000577051
0.000647475
0.00071704
0.000784904
0.00085053
0.000913603
0.000973969
0.00103158
0.00108645
0.00113865
0.00118826
0.00123538
0.00128013
0.00132261
0.00136295
0.00140127
0.00143768
0.0014723
0.00150524
0.00153661
0.00156652
0.00159507
0.00162237
0.00164852
0.00167359
0.00169769
0.00172089
0.00174326
0.00176483
0.00178564
0.00180569
0.00182497
0.00184344
0.00186107
0.00187779
0.00189353
0.00190819
0.00192168
0.00193392
0.00194602
0.00195818
0.00196978
0.00198061
0.00199052
0.00199931
0.0020068
0.00201276
0.00201692
0.00201893
0.00201839
0.0020148
0.00200758
0.00199604
0.00197938
0.00195672
0.00192707
0.00188937
0.00184256
0.00178554
0.0017173
0.00159612
0.00142878
0.00128855
0.00117266
0.00108266
0.00102088
0.000953659
0.000817206
0.000673119
0.000498463
0.000254397
5.50598e-05
6.02467e-05
0.000230753
0.000305957
0.000371007
0.000451782
0.000544932
0.000647411
0.000755166
0.000864869
0.000974068
0.00108107
0.0011848
0.00128461
0.0013802
0.00147144
0.00155834
0.00164097
0.00171947
0.00179396
0.00186461
0.00193157
0.00199501
0.00205508
0.00211194
0.00216574
0.00221664
0.00226479
0.00231034
0.00235341
0.00239416
0.0024327
0.00246917
0.00250366
0.00253629
0.00256717
0.00259636
0.00262393
0.00264991
0.00267428
0.00269701
0.00271803
0.00273724
0.00275453
0.00276978
0.00278283
0.00279355
0.00280178
0.00280737
0.00281191
0.0028145
0.00281479
0.00281251
0.00280742
0.00279927
0.00278775
0.00277253
0.00275322
0.00272931
0.00270022
0.00266525
0.00262358
0.00257432
0.00251645
0.00244896
0.00237082
0.00228111
0.00217914
0.00206454
0.00193753
0.00179873
0.00164964
0.00149299
0.00133193
0.00116958
0.00100854
0.000850092
0.000691909
0.000520281
0.000289107
5.42165e-05
6.61539e-05
0.000281237
0.000379176
0.000474461
0.00058816
0.000717123
0.000856037
0.000999975
0.00114491
0.00128796
0.00142729
0.00156178
0.00169086
0.00181427
0.00193196
0.00204401
0.00215054
0.00225173
0.00234775
0.0024388
0.00252505
0.00260669
0.00268389
0.00275683
0.00282567
0.00289059
0.00295175
0.00300932
0.00306346
0.00311433
0.0031621
0.0032069
0.00324888
0.00328818
0.00332494
0.00335928
0.00339133
0.00342117
0.0034488
0.00347419
0.00349723
0.00351781
0.00353575
0.00355085
0.00356288
0.00357157
0.00357666
0.00357785
0.0035753
0.00356971
0.00356042
0.00354712
0.00352956
0.00350753
0.00348075
0.00344895
0.00341174
0.00336865
0.0033191
0.00326233
0.00319743
0.00312337
0.00303899
0.00294306
0.00283437
0.0027118
0.00257449
0.00242204
0.00225473
0.00207384
0.00188182
0.0016823
0.0014799
0.00127957
0.00108542
0.000899267
0.000720311
0.000537545
0.000313243
5.76107e-05
6.83197e-05
0.000314789
0.000448192
0.000574813
0.000720634
0.000882401
0.00105375
0.00122891
0.00140359
0.00157493
0.00174111
0.00190115
0.00205456
0.00220118
0.00234103
0.00247425
0.002601
0.0027215
0.00283594
0.00294452
0.00304743
0.00314485
0.00323697
0.00332394
0.00340595
0.00348314
0.0035557
0.00362376
0.00368752
0.00374714
0.00380279
0.00385465
0.00390291
0.0039478
0.00398949
0.00402807
0.00406381
0.00409707
0.00412789
0.00415626
0.0041821
0.00420528
0.00422565
0.00424297
0.00425699
0.00426734
0.00427359
0.00427519
0.00427141
0.0042626
0.00424856
0.00422905
0.00420382
0.00417282
0.00413594
0.00409303
0.00404384
0.003988
0.00392494
0.00385393
0.00377398
0.0036839
0.00358232
0.00346768
0.00333837
0.00319281
0.00302963
0.0028479
0.00264745
0.00242926
0.00219573
0.00195102
0.00170109
0.00145251
0.00121211
0.000985745
0.000774467
0.00057
0.000345941
6.64503e-05
6.96943e-05
0.000342617
0.000511886
0.00066918
0.000844619
0.00103523
0.0012341
0.00143526
0.00163443
0.00182887
0.00201698
0.00219789
0.00237125
0.002537
0.00269522
0.00284611
0.00298987
0.00312671
0.00325685
0.00338048
0.00349779
0.00360895
0.00371413
0.00381347
0.00390713
0.00399525
0.00407796
0.0041554
0.00422772
0.00429505
0.00435754
0.00441531
0.00446852
0.00451796
0.00456419
0.00458407
0.00458408
0.00458751
0.00459327
0.00460036
0.00460945
0.0046215
0.0046375
0.00465857
0.00468605
0.00472156
0.00476758
0.00482755
0.00489723
0.00489663
0.00488414
0.00486452
0.00483672
0.00480151
0.00475916
0.00470985
0.00465357
0.00459013
0.00451912
0.00443985
0.00435135
0.00425231
0.00414115
0.00401601
0.00387478
0.00371528
0.00353534
0.00333314
0.00310754
0.00285851
0.0025877
0.00229896
0.0019983
0.00169428
0.00139692
0.00111586
0.000856932
0.000616962
0.0003765
7.73748e-05
7.06197e-05
0.000365635
0.000569571
0.000755705
0.00095738
0.00117244
0.00139402
0.00161628
0.00183515
0.00204815
0.00225384
0.00245157
0.00264109
0.00282244
0.00299578
0.00316133
0.00331931
0.00346995
0.00361345
0.00375
0.00387976
0.0040029
0.00411955
0.00422984
0.0043339
0.00443184
0.00452375
0.00460975
0.0046899
0.00476428
0.00483293
0.00489584
0.0048871
0.00485681
0.00484126
0.00483254
0.00482621
0.00482188
0.00481943
0.00481922
0.00482223
0.0048295
0.00484219
0.00486169
0.00488965
0.0049278
0.00497759
0.00503993
0.00511579
0.00520925
0.005326
0.00544534
0.00541965
0.00538437
0.00534001
0.00528758
0.00522756
0.00516006
0.00508489
0.00500152
0.00490906
0.00480624
0.00469135
0.00456229
0.00441655
0.00425129
0.0040635
0.00385022
0.00360894
0.00333816
0.00303798
0.00271092
0.00236259
0.00200192
0.00164101
0.00129358
0.000971624
0.000679462
0.000404956
9.13447e-05
7.12719e-05
0.000384617
0.000621023
0.000833482
0.0010577
0.00129287
0.00153265
0.00177156
0.00200589
0.0022334
0.00245291
0.00266393
0.00286634
0.00306026
0.00324591
0.00342352
0.00359334
0.00375557
0.00391041
0.00405802
0.00419855
0.00433213
0.00445888
0.00457891
0.0046923
0.00479916
0.00489955
0.00499353
0.00508114
0.0051624
0.00523726
0.00518942
0.0051312
0.00509655
0.00507659
0.00506175
0.00504929
0.00503959
0.00503305
0.00502978
0.00503034
0.00503558
0.00504664
0.00506499
0.00509268
0.00513229
0.00518644
0.00525648
0.00534198
0.00544485
0.00556755
0.00571424
0.00587357
0.00590985
0.00586549
0.00581198
0.0057503
0.00568095
0.00560401
0.00551919
0.00542582
0.00532274
0.00520832
0.00508034
0.00493604
0.00477207
0.00458458
0.00436944
0.00412257
0.00384053
0.00352128
0.00316522
0.00277627
0.00236275
0.00193776
0.00151835
0.00112273
0.000764482
0.000442159
0.000103198
7.17463e-05
0.000400195
0.000666346
0.000902331
0.00114543
0.00139664
0.0016505
0.00190207
0.00214805
0.00238652
0.00261653
0.00283776
0.00305021
0.00325407
0.00344959
0.00363702
0.00381659
0.00398849
0.0041529
0.00430995
0.00445976
0.00460244
0.00473807
0.00486674
0.00498854
0.00510354
0.00521179
0.00531335
0.00540826
0.00549652
0.00552731
0.00545302
0.00538952
0.0053525
0.00533129
0.00531647
0.00530449
0.00529525
0.00528915
0.00528652
0.00528786
0.00529395
0.00530583
0.005325
0.0053536
0.00539443
0.00545055
0.00552443
0.00561756
0.0057312
0.00586528
0.00601786
0.00619172
0.0063661
0.00632615
0.00627243
0.00621023
0.00614028
0.00606294
0.00597821
0.00588569
0.0057845
0.00567321
0.00554971
0.0054112
0.00525401
0.00507368
0.00486497
0.00462221
0.00433974
0.00401283
0.0036389
0.00321912
0.00275998
0.00227453
0.00178232
0.00130726
0.000872341
0.000489083
0.000115259
7.21064e-05
0.00041296
0.000705942
0.000962645
0.00122122
0.00148476
0.00174897
0.00200959
0.00226382
0.00251007
0.00274764
0.00297636
0.00319634
0.00340783
0.00361107
0.00380633
0.00399381
0.00417368
0.00434607
0.00451109
0.00466882
0.00481934
0.00496272
0.00509903
0.00522833
0.00535069
0.00546618
0.00557486
0.00567679
0.00577206
0.00580196
0.00572408
0.0056573
0.00562094
0.00560394
0.00559474
0.00558832
0.00558401
0.00558227
0.00558363
0.00558864
0.00559799
0.00561264
0.00563406
0.00566447
0.00570705
0.00576555
0.00584353
0.0059435
0.00606655
0.00621191
0.00637551
0.00655429
0.0067354
0.00671722
0.00666348
0.00660124
0.00653132
0.00645427
0.00637036
0.00627953
0.00618125
0.00607443
0.00595732
0.00582726
0.0056806
0.00551253
0.00531702
0.00508689
0.00481427
0.00449132
0.00411168
0.00367251
0.00317703
0.00263696
0.00207369
0.00151682
0.000998755
0.000544415
0.000127586
7.24087e-05
0.000423582
0.000740566
0.00101535
0.00128633
0.00155887
0.00183005
0.00209648
0.00235588
0.00260704
0.00284952
0.00308329
0.00330855
0.00352556
0.0037346
0.0039359
0.00412961
0.00431587
0.00449477
0.00466637
0.00483073
0.00498789
0.00513789
0.00528079
0.00541665
0.00554551
0.00566746
0.00578257
0.00589093
0.00599265
0.00605897
0.00598173
0.0059147
0.00588283
0.00587378
0.00587391
0.0058767
0.00588079
0.00588663
0.00589485
0.00590602
0.0059208
0.00594005
0.00596515
0.00599837
0.00604328
0.00610471
0.00618781
0.00629615
0.00642971
0.00658473
0.00675687
0.00694274
0.00708226
0.00703769
0.00698399
0.00692196
0.00685236
0.0067759
0.00669309
0.00660418
0.00650905
0.00640709
0.00629698
0.00617652
0.00604239
0.00588979
0.00571229
0.00550163
0.0052479
0.00494003
0.00456723
0.00412136
0.00360045
0.00301297
0.00238119
0.00174106
0.00113598
0.000604333