/*--------------------------------*- C++ -*----------------------------------*\
| =========                 |                                                 |
| \\      /  F ield         | OpenFOAM: The Open Source CFD Toolbox           |
|  \\    /   O peration     | Version:  v2012                                 |
|   \\  /    A nd           | Website:  www.openfoam.com                      |
|    \\/     M anipulation  |                                                 |
\*---------------------------------------------------------------------------*/
FoamFile
{
    version     2.0;
    format      ascii;
    class       volScalarField;
    location    "604";
    object      omega;
}
// * * * * * * * * * * * * * * * * * * * * * * * * * * * * * * * * * * * * * //

dimensions      [0 0 -1 0 0 0 0];


internalField   nonuniform List<scalar> 
6532
(
484.351
172.12
150.603
148.232
149.197
149.197
148.232
150.603
172.12
484.351
374.16
153.195
127.158
122.859
122.899
122.899
122.859
127.158
153.195
374.16
305.008
134.697
109.787
104.622
103.981
103.981
104.622
109.787
134.697
305.008
258.412
118.875
96.3337
90.9303
89.8722
89.8722
90.9303
96.3336
118.875
258.412
225.171
105.819
85.6248
80.2977
79.0144
79.0144
80.2977
85.6247
105.819
225.171
200.347
95.1045
76.9302
71.8179
70.4316
70.4316
71.8178
76.9301
95.1042
200.347
181.109
86.2656
69.7581
64.9088
63.4919
63.4919
64.9088
69.7579
86.2653
181.11
165.747
78.9049
63.7612
59.1799
57.7731
57.7731
59.1798
63.761
78.9044
165.747
153.173
72.709
58.6869
54.359
52.9839
52.9839
54.3588
58.6866
72.7083
153.174
142.669
67.4375
54.3473
50.251
48.9181
48.918
50.2507
54.3468
67.4364
142.671
133.745
62.9063
50.6003
46.7122
45.4254
45.4253
46.7119
50.5995
62.9047
133.747
126.053
58.9742
47.3367
43.6347
42.3943
42.3942
43.6343
47.3356
58.9719
126.056
119.341
55.5322
44.4716
40.9358
39.7403
39.74
40.9351
44.47
55.5287
119.346
113.424
52.4951
41.9384
38.5511
37.398
37.3976
38.55
41.936
52.4899
113.431
108.16
49.796
39.6839
36.4298
35.3162
35.3157
36.4282
39.6804
49.7884
108.169
103.441
47.3817
37.6656
34.5314
33.4545
33.4537
34.529
37.6604
47.3705
103.453
99.1796
45.2095
35.8489
32.8232
31.78
31.7789
32.8196
35.8413
45.1935
99.1977
95.3093
43.2451
34.2057
31.2785
30.2664
30.2649
31.2733
34.1946
43.2229
95.3345
91.7744
41.4604
32.7129
29.8754
28.8918
28.8897
29.868
32.6966
41.4297
91.8093
88.5295
39.832
31.3506
28.5949
27.6375
27.6345
28.5845
31.3272
39.7985
88.5745
85.4787
38.3126
30.0801
27.4009
26.4678
26.4634
27.3839
30.0244
37.9318
75.3713
82.6577
36.9194
28.9146
26.305
25.3938
25.387
26.2761
28.8011
36.1026
64.5398
80.0389
35.6391
27.8432
25.297
24.4053
24.3947
25.2494
27.6472
34.258
55.9754
77.5983
34.4595
26.8555
24.367
23.4925
23.4769
24.2945
26.5551
32.237
49.174
75.3155
33.3704
25.9429
23.5067
22.6472
22.626
23.4078
25.4772
30.2256
43.8462
73.1725
32.3632
25.098
22.7089
21.8621
21.8335
22.5804
24.4262
28.4135
39.7257
71.1537
31.4307
24.3145
21.9676
21.131
21.0926
21.7939
23.4533
26.8744
36.5273
69.2454
30.5669
23.587
21.2775
20.4486
20.3976
21.0483
22.5495
25.5951
34.014
67.435
29.767
22.9112
20.6343
19.8103
19.7443
20.3432
21.7145
24.5103
31.8895
65.7112
29.0271
22.2836
20.0342
19.2125
19.1294
19.6774
20.9435
23.5606
29.9461
64.0635
28.3447
21.7013
19.4742
18.6518
18.5498
19.049
20.2297
22.7036
28.1764
62.4822
27.7175
21.1622
18.9519
18.1258
18.0033
18.4558
19.5649
21.9076
26.5649
60.9582
27.1431
20.6649
18.4655
17.6324
17.4877
17.8951
18.9396
21.1378
25.0919
59.4825
26.6211
20.2084
18.0138
17.1701
17.0013
17.3643
18.3452
20.3839
23.7386
58.0466
26.1513
19.7928
17.5962
16.7382
16.543
16.8609
17.7746
19.6401
22.4862
56.6419
25.7337
19.4187
17.2131
16.3362
16.112
16.3829
17.2223
18.9042
21.3182
55.2602
25.3685
19.0874
16.8652
15.9648
15.7084
15.9291
16.6856
18.1773
20.221
53.8934
25.0551
18.8008
16.5543
15.6252
15.333
15.4999
16.165
17.4635
19.1861
52.5841
24.8045
18.5695
16.2919
15.3297
14.999
15.1101
15.6798
16.7916
18.2394
51.2731
24.6041
18.3851
16.069
15.0682
14.695
14.7467
15.2161
16.1449
17.3466
49.9528
24.4519
18.2503
15.8888
14.8435
14.4236
14.4126
14.7789
15.5312
16.509
48.6155
24.3455
18.1679
15.7553
14.6596
14.1886
14.1123
14.3753
14.9603
15.7335
47.2533
24.2818
18.1406
15.6728
14.521
13.9945
13.8507
14.0125
14.4424
15.0293
45.8578
24.2566
18.1709
15.6459
14.4324
13.8461
13.6332
13.6979
13.9866
14.4061
44.4202
24.2647
18.2602
15.6788
14.3991
13.7485
13.4652
13.4378
13.6003
13.8723
42.93
24.2995
18.409
15.7757
14.4259
13.7067
13.3515
13.237
13.2882
13.433
41.3755
24.3526
18.6166
15.9397
14.5175
13.7256
13.2967
13.0993
13.0524
13.0892
39.7424
24.4139
18.88
16.1727
14.6777
13.8093
13.3044
13.0269
12.8925
12.838
38.012
24.4714
19.1939
16.4742
14.9088
13.9609
13.3773
13.0208
12.8064
12.6736
36.1593
24.5095
19.548
16.8397
15.2098
14.1814
13.5164
13.081
12.7911
12.5889
34.1466
24.5059
19.9238
17.2572
15.5741
14.467
13.7197
13.2052
12.8427
12.5768
31.9152
24.4117
20.2824
17.6989
15.9819
14.8043
13.978
13.3871
12.9556
12.6308
29.3256
24.1321
20.5496
18.1051
16.3882
15.1608
14.2693
13.6121
13.1203
12.7481
26.2434
23.5537
20.6402
18.3947
16.7229
15.4825
14.5549
13.8557
13.3303
12.9313
22.5366
22.3277
20.3787
18.4656
16.9132
15.7128
14.7953
14.1057
13.5804
13.1714
17.6297
19.7429
19.3451
18.1012
16.8481
15.7965
14.9864
14.3565
13.8594
13.4591
13.7513
15.5529
17.0354
16.9404
16.3433
15.706
15.1215
14.6118
14.177
13.8091
12.4264
10.1837
13.2544
14.7478
15.2565
15.3016
15.1366
14.8826
14.6015
14.3271
12.8976
9.5128
10.3955
12.6743
14.1164
14.9872
15.4671
15.6799
15.7161
15.6746
13.4247
14.3805
17.5262
21.3467
24.7572
27.9065
29.8986
31.5239
32.8827
33.9767
30.9391
19.3191
19.7394
20.3397
20.818
21.1253
21.2473
21.1858
20.9397
20.5611
20.074
19.4777
18.771
17.985
17.137
16.2332
15.2674
14.3249
13.4147
12.4979
11.545
10.5205
9.3672
7.96615
6.85301
40.749
14.283
8.61993
7.45998
7.1134
6.95533
6.84782
6.74319
6.61681
6.46229
6.30034
6.13519
5.97124
5.81363
5.66744
5.54074
5.45627
5.54275
5.78109
6.10918
6.46027
6.74827
6.87134
6.81427
10.7165
45.3397
19.3171
9.53122
6.88334
5.97452
5.54294
5.279
5.08111
4.9067
4.7306
4.55634
4.38663
4.22058
4.06109
3.91496
3.79321
3.715
3.7288
3.86815
4.13848
4.52994
4.99724
5.45599
5.98507
11.8318
45.7476
23.4383
12.766
8.22875
6.44663
5.6343
5.16522
4.84564
4.59923
4.38772
4.1842
3.99249
3.80364
3.61709
3.43984
3.28469
3.16965
3.1241
3.17733
3.34737
3.64893
4.07726
4.60029
5.40798
12.3424
44.2399
26.6348
15.4648
10.1874
7.50559
6.15771
5.42613
4.96013
4.63098
4.37787
4.16233
3.95461
3.75
3.54044
3.33156
3.13914
2.98367
2.8901
2.88295
2.97991
3.20084
3.56055
4.0736
5.03564
12.5271
41.9614
28.1591
17.7233
11.8457
8.74763
6.92842
5.85816
5.21296
4.78713
4.48791
4.25885
4.05676
3.84643
3.62129
3.38217
3.14953
2.95025
2.81151
2.75632
2.79931
2.95925
3.25917
3.74766
4.80737
12.5379
39.3229
28.8448
19.5063
13.3991
9.84395
7.77101
6.42982
5.56338
5.01489
4.65864
4.41351
4.21771
4.02289
3.79569
3.52943
3.25262
3.00222
2.8148
2.7157
2.71534
2.82911
3.08305
3.54891
4.67393
12.4469
36.7451
28.9034
20.6659
14.7459
10.8899
8.51225
7.00877
5.99217
5.30625
4.87442
4.60709
4.41839
4.24207
4.02966
3.75589
3.43463
3.12141
2.87587
2.73004
2.69008
2.76672
2.98598
3.43458
4.60285
12.2845
34.3529
28.5205
21.3482
15.7857
11.8372
9.22486
7.52238
6.3998
5.63307
5.12809
4.83065
4.64789
4.49532
4.3082
4.04113
3.68973
3.31712
3.00193
2.79502
2.71027
2.75257
2.9442
3.37998
4.57443
12.062
32.1623
27.8068
21.7102
16.5473
12.6464
9.89644
8.02756
6.77834
5.95106
5.40033
5.07594
4.89895
4.77638
4.62935
4.38956
4.0255
3.59174
3.1955
2.91572
2.77966
2.78475
2.95044
3.37561
4.58261
11.7994
30.1633
26.8869
21.816
17.0684
13.3073
10.4998
8.51248
7.15542
6.25768
5.67755
5.33751
5.16758
5.08066
4.98875
4.80509
4.46329
3.981
3.48511
3.10321
2.90033
2.86354
3.00618
3.43059
4.67368
11.568
28.3451
25.8823
21.6915
17.3734
13.81
11.014
8.95867
7.52375
6.56828
5.96269
5.60801
5.44873
5.39988
5.37342
5.27524
5.00828
4.52494
3.93095
3.39703
3.09015
2.99487
3.11119
3.53855
4.81749
11.3359
26.6936
24.8547
21.38
17.5241
14.1605
11.4307
9.35513
7.87349
6.87791
6.24846
5.88773
5.73719
5.72112
5.76013
5.76771
5.63426
5.24196
4.60925
3.91116
3.39648
3.19619
3.2688
3.69208
4.98635
11.0843
25.1865
23.828
20.9391
17.5571
14.3967
11.7685
9.70325
8.19865
7.17781
6.53244
6.1689
6.0236
6.03142
6.12229
6.23255
6.26737
6.08209
5.5267
4.72905
3.92
3.50779
3.48801
3.88258
5.15794
10.8046
23.8012
22.8187
20.4256
17.4872
14.5404
12.0275
10.0025
8.49615
7.46206
6.80543
6.44285
6.30452
6.31868
6.44028
6.62177
6.80775
6.88428
6.63478
5.88474
4.86218
4.0359
3.79821
4.10542
5.31062
10.4999
22.5168
21.8349
19.8695
17.3192
14.6371
12.2371
10.2715
8.77224
7.72965
7.06037
6.69708
6.5653
6.58552
6.70809
6.91811
7.18798
7.46895
7.62279
7.32479
6.34401
4.98531
4.28755
4.37974
5.43343
10.1964
21.3155
20.8777
19.2861
17.0864
14.6964
12.4173
10.5146
9.03391
7.98427
7.29649
6.92521
6.79611
6.82063
6.9418
7.13983
7.42054
7.77856
8.17845
8.47401
8.22009
6.99977
5.25906
4.78973
5.53117
9.97864
20.1839
19.9449
18.6803
16.8091
14.7002
12.602
10.7566
9.29974
8.23585
7.52128
7.12945
6.99382
7.02006
7.14178
7.32634
7.57168
7.90266
8.33045
8.85902
9.3712
9.38781
8.10805
5.99859
5.76567
10.1695
19.1448
19.0607
18.077
16.5086
14.6564
12.7699
11.0095
9.5704
8.49715
7.74463
7.31664
7.1594
7.18065
7.3072
7.49284
7.71681
7.98106
8.31241
8.75348
9.34671
10.0673
10.6588
10.3995
8.53462
10.2526
18.1574
18.1941
17.458
16.1692
14.5734
12.8903
11.2886
9.87194
8.77893
7.98689
7.50273
7.30222
7.30156
7.42697
7.62466
7.85972
8.1114
8.37253
8.65055
8.99378
9.43692
10.0106
10.6555
11.0744
11.0936
17.2191
17.3422
16.8203
15.7914
14.4496
12.9749
11.5245
10.2171
9.11455
8.27652
7.72543
7.45261
7.40112
7.50232
7.70189
7.96166
8.25336
8.55202
8.83512
9.09009
9.33069
9.60858
9.9671
10.3602
10.7562
16.3353
16.5095
16.1652
15.3726
14.2736
13.0169
11.7343
10.5369
9.49228
8.64438
8.02037
7.65779
7.5175
7.55514
7.71814
7.9693
8.28216
8.63298
8.99517
9.33472
9.61169
9.79945
9.94574
10.1399
10.4037
15.5161
15.7063
15.4985
14.9125
14.0406
12.9978
11.8942
10.8255
9.86135
9.04603
8.41002
7.97006
7.71585
7.64886
7.729
7.91963
8.19413
8.53122
8.91136
9.31382
9.70876
10.0572
10.3259
10.5009
10.5571
14.7749
14.9491
14.8337
14.4165
13.7483
12.9099
11.988
11.0625
10.1987
9.44115
8.81972
8.35166
8.03672
7.8647
7.82724
7.92112
8.11476
8.38182
8.69645
9.02645
9.34374
9.62033
9.8215
9.90652
9.84279
14.1256
14.2583
14.1919
13.8995
13.4018
12.749
12.0035
11.2283
10.4796
9.80026
9.21871
8.75427
8.41277
8.18912
8.07294
8.061
8.15586
8.33701
8.58242
8.84604
9.0995
9.31816
9.47554
9.54457
9.50144
13.5791
13.6545
13.6
13.3869
13.0181
12.5209
11.9357
11.3081
10.6818
10.0941
9.57258
9.13607
8.7947
8.55061
8.39887
8.33546
8.35388
8.45437
8.61926
8.8219
9.03508
9.23287
9.39059
9.48592
9.50126
13.1407
13.1535
13.0848
12.9105
12.6267
12.2464
11.794
11.2995
10.7933
10.3034
9.8534
9.4615
9.14002
8.89583
8.72969
8.63859
8.61925
8.6643
8.76849
8.91895
9.09523
9.27555
9.43817
9.56328
9.63547
12.8091
12.7624
12.666
12.5015
12.2643
11.9609
11.6057
11.2166
10.8139
10.4171
10.0437
9.70791
9.42053
9.18961
9.02006
8.91211
8.86486
8.87481
8.93588
9.03979
9.17716
9.33355
9.49225
9.63629
9.75054
12.5774
12.4786
12.3516
12.1817
11.965
11.7052
11.4107
11.0936
10.7674
10.4452
10.1391
9.85898
9.61296
9.40723
9.2472
9.13514
9.06994
9.04945
9.0707
9.12955
9.22321
9.34325
9.47889
9.61789
9.74756
12.4355
12.2928
12.1384
11.9595
11.7505
11.5124
11.2514
10.9765
10.6976
10.4243
10.1651
9.92698
9.71528
9.53416
9.38702
9.27655
9.20309
9.16508
9.16061
9.18722
9.24214
9.32128
9.41958
9.53062
9.64585
12.3733
12.1938
12.0188
11.8325
11.6269
11.4009
11.1586
10.9067
10.6532
10.4059
10.1716
9.95581
9.7625
9.5945
9.45378
9.34126
9.25727
9.20167
9.17307
9.16951
9.1889
9.22882
9.28644
9.35858
9.44164
12.3834
12.177
11.9857
11.7935
11.591
11.3747
11.1459
10.9089
10.6699
10.4352
10.2109
10.0018
9.81169
9.6429
9.49693
9.37442
9.27526
9.19854
9.14268
9.1065
9.08866
9.0872
9.10026
9.12592
9.16191
12.47
12.2397
12.0338
11.8363
11.6366
11.4291
11.2125
10.9886
10.7614
10.5356
10.3161
10.1075
9.91304
9.73546
9.57632
9.43644
9.31595
9.21433
9.13052
9.06309
9.01025
8.97017
8.94143
8.92279
8.91274
12.6293
12.3793
12.1598
11.9558
11.7565
11.5553
11.3489
11.137
10.9214
10.7051
10.4916
10.2844
10.0866
9.90066
9.72836
9.57083
9.42863
9.30179
9.18991
9.09214
9.00741
8.93443
8.87173
8.8179
8.77169
12.8557
12.591
12.3592
12.147
11.9447
11.7454
11.545
11.3419
11.1362
10.9293
10.7233
10.5207
10.3237
10.1345
9.95461
9.78531
9.62738
9.48123
9.34692
9.22423
9.11267
9.01153
8.91992
8.83695
8.76186
13.1418
12.8705
12.6306
12.4114
12.2045
12.004
11.8055
11.6069
11.4075
11.2077
11.0084
10.8112
10.6176
10.4292
10.2473
10.073
9.90699
9.74987
9.60189
9.46311
9.33337
9.21236
9.09967
8.99483
8.89753
13.5077
13.2432
13.0045
12.7833
12.5737
12.3709
12.1715
11.9738
11.777
11.581
11.3865
11.1942
11.0052
10.8205
10.641
10.4677
10.3011
10.1417
9.98979
9.8455
9.70877
9.57944
9.45726
9.34185
9.23319
14.082
13.853
13.637
13.4309
13.2303
13.0338
12.8401
12.649
12.4601
12.2737
12.0901
11.9099
11.7338
11.5623
11.3962
11.236
11.0821
10.9347
10.7941
10.6601
10.5326
10.4114
10.2959
10.1864
10.0825
15.604
15.5182
15.4274
15.3359
15.2347
15.1276
15.0172
14.9049
14.7912
14.677
14.5629
14.4496
14.3377
14.2277
14.1201
14.0152
13.9131
13.814
13.7179
13.6246
13.5339
13.4456
13.3593
13.2747
13.1916
34.8339
35.5623
36.1911
36.7337
37.1743
37.5254
37.7948
37.9891
38.1143
38.1767
38.1824
38.1373
38.0473
37.9179
37.7542
37.5612
37.3433
37.1048
36.8495
36.5809
36.302
36.0157
35.7244
35.4305
35.1358
9.944
9.37607
14.7216
12.0452
12.5865
12.1796
11.0873
11.1925
10.987
10.6893
10.6828
10.0038
10.3785
9.92241
9.09996
9.61571
9.22542
8.63714
9.33772
9.07894
8.71228
9.43038
9.28884
9.07091
9.64516
9.60261
9.50698
9.8194
9.85059
9.84357
9.84888
9.92772
9.98206
9.74844
9.84349
9.92834
9.52263
9.60509
9.68737
9.20163
9.24718
9.29746
8.90998
8.91219
8.91869
8.73592
8.70472
8.67706
8.70075
8.64463
8.59231
8.81667
8.74093
8.66911
9.14182
9.0552
8.97223
9.99456
9.91039
9.82905
13.1193
13.0478
12.9765
34.8772
34.6207
34.3668
4.60142
6.02616
7.53588
8.61377
9.46614
10.1587
10.7517
11.2716
11.7354
12.1543
12.5361
12.8866
13.2102
13.5104
13.7901
14.0517
14.2974
14.5288
14.7476
14.9552
15.1528
15.3415
15.5224
15.6964
15.8645
16.0275
16.1862
16.3413
16.4937
16.6441
16.7931
16.9414
17.0898
17.2389
17.3895
17.5421
17.6976
17.8566
18.0201
18.1889
18.3639
18.5463
18.7373
18.9383
19.1512
19.378
19.616
19.8604
20.1106
20.3664
20.6276
20.8942
21.1661
21.4433
21.7254
22.0119
22.3019
22.5944
22.8879
23.1802
23.4685
23.749
24.0164
24.2642
24.4833
24.6617
24.7837
24.8277
24.7639
24.5533
24.1386
23.5402
22.7327
21.4952
19.8791
17.9016
15.5708
13.3928
11.3162
10.225
10.0732
6.69688
7.3891
7.77084
7.94607
7.99331
7.96159
7.89396
7.81167
7.72627
7.64354
7.56624
7.49546
7.43142
7.37388
7.3224
7.27644
7.23544
7.19887
7.16624
7.13711
7.11108
7.0878
7.06697
7.04832
7.03161
7.01664
7.00322
6.99119
6.9804
6.97071
6.962
6.95417
6.94717
6.94098
6.93564
6.93128
6.92811
6.92643
6.92667
6.92935
6.93516
6.94492
6.95976
6.98136
7.01096
7.04489
7.07884
7.11472
7.15295
7.19391
7.23794
7.2854
7.33669
7.39222
7.45244
7.51784
7.58895
7.66631
7.75048
7.84196
7.94121
8.0485
8.16384
8.28678
8.4161
8.54947
8.68309
8.8112
8.92149
8.99107
9.01261
8.94823
8.74961
8.36961
7.74957
7.01814
7.17118
7.62407
12.1809
12.0752
6.81768
6.89269
6.90377
6.82383
6.67087
6.48429
6.29569
6.11859
5.95832
5.81601
5.69089
5.58141
5.48575
5.40214
5.32894
5.26468
5.20808
5.15804
5.11362
5.07402
5.03855
5.00665
4.97782
4.95166
4.92781
4.90598
4.8859
4.86735
4.85013
4.83408
4.81904
4.8049
4.79159
4.7791
4.76744
4.75671
4.74703
4.73858
4.7316
4.72637
4.72323
4.72257
4.72483
4.73049
4.74004
4.75402
4.77102
4.79065
4.8139
4.84134
4.87351
4.91098
4.95438
5.00443
5.06192
5.12775
5.20291
5.2885
5.3857
5.49579
5.62009
5.75997
5.91675
6.09163
6.28549
6.49862
6.73037
6.97856
7.23857
7.49968
7.74507
7.94245
8.04341
7.98604
7.69087
7.08935
6.33057
6.54099
11.634
13.2302
6.6994
6.39659
6.22037
6.01214
5.78862
5.56204
5.35128
5.16349
4.99967
4.85826
4.73681
4.63271
4.54348
4.46688
4.40096
4.34402
4.29466
4.25165
4.21399
4.18083
4.15146
4.12531
4.10189
4.08078
4.06166
4.04425
4.02831
4.01363
4.00004
3.98738
3.97552
3.96433
3.95375
3.94376
3.93439
3.92569
3.91778
3.91076
3.90483
3.90016
3.89699
3.89558
3.89625
3.89935
3.90529
3.91452
3.92755
3.94343
3.96302
3.98693
4.01574
4.05004
4.09049
4.13784
4.19295
4.25683
4.33061
4.41559
4.5132
4.62508
4.75303
4.89906
5.06543
5.25456
5.46912
5.71186
5.98543
6.29207
6.63379
7.0105
7.41603
7.83365
8.22961
8.54336
8.67098
8.45219
7.77298
7.20456
11.4558
13.978
6.49089
5.95748
5.68445
5.42453
5.17255
4.93955
4.73234
4.55264
4.39912
4.26896
4.15902
4.06633
3.98821
3.9223
3.86659
3.81936
3.77917
3.74481
3.71527
3.68972
3.66748
3.64797
3.63072
3.61536
3.60157
3.5891
3.57773
3.56729
3.55763
3.54859
3.54004
3.53185
3.52394
3.51628
3.50892
3.50191
3.49535
3.48935
3.48406
3.47964
3.47626
3.47413
3.47351
3.47468
3.47797
3.48381
3.49263
3.50472
3.51996
3.53908
3.56266
3.5913
3.62561
3.66631
3.71423
3.77041
3.83602
3.91244
4.00124
4.10422
4.22346
4.36137
4.52077
4.70496
4.91782
5.16393
5.44862
5.77814
6.15954
6.59996
7.10502
7.67577
8.30288
8.95688
9.56471
9.94539
9.80531
9.00591
12.1729
14.4357
6.27746
5.5878
5.26182
4.98012
4.7228
4.49372
4.2954
4.12681
3.98494
3.86641
3.76782
3.68604
3.61835
3.56236
3.51606
3.47773
3.44595
3.41951
3.39743
3.37888
3.3632
3.34982
3.33828
3.32824
3.31937
3.31144
3.30427
3.29768
3.29154
3.28572
3.28006
3.2744
3.26861
3.26268
3.2567
3.25073
3.24481
3.23904
3.23355
3.22848
3.22396
3.22017
3.21732
3.21565
3.21547
3.21714
3.22109
3.22788
3.2376
3.25071
3.26778
3.28937
3.31603
3.34838
3.38723
3.43355
3.48854
3.5536
3.63032
3.72057
3.82652
3.95074
4.0963
4.26689
4.46705
4.70234
4.97961
5.30736
5.696
6.158
6.70754
7.35884
8.12659
9.01668
10.0021
10.9753
11.6748
11.7842
14.0406
14.7261
6.08949
5.28041
4.92285
4.63338
4.37825
4.15653
3.96778
3.80945
3.67799
3.56961
3.48081
3.40842
3.34969
3.30226
3.2641
3.23351
3.20908
3.18963
3.17416
3.16186
3.15208
3.14426
3.13795
3.1328
3.12851
3.12484
3.12162
3.1187
3.11596
3.11326
3.11043
3.10726
3.1035
3.09906
3.09406
3.0886
3.08277
3.07668
3.07043
3.06416
3.05798
3.05205
3.04658
3.04179
3.03796
3.03543
3.0346
3.03594
3.03967
3.04629
3.05647
3.07095
3.09004
3.11426
3.14428
3.18103
3.22565
3.27952
3.34419
3.42149
3.51354
3.62287
3.75254
3.90629
4.08879
4.3059
4.56509
4.8759
5.25059
5.70479
6.25794
6.93472
7.76376
8.77542
9.99144
11.3899
12.8218
13.9669
16.3488
14.9217
5.93098
5.02338
4.64497
4.35405
4.10389
3.88989
3.70985
3.56042
3.4377
3.3378
3.25717
3.19264
3.14146
3.10126
3.07004
3.04611
3.02805
3.01469
3.00503
2.99828
2.99377
2.99096
2.9894
2.98874
2.98869
2.98902
2.98955
2.99015
2.9907
2.99108
2.99113
2.99035
2.98842
2.98529
2.98111
2.97604
2.97024
2.96378
2.95676
2.94929
2.94148
2.93351
2.92555
2.91786
2.91072
2.9045
2.89957
2.89636
2.89512
2.89637
2.90072
2.90879
2.92122
2.93843
2.96088
2.98939
3.02504
3.06914
3.12316
3.18881
3.26809
3.36336
3.47752
3.61414
3.77772
3.97401
4.2105
4.49698
4.84641
5.27598
5.80844
6.47365
7.31055
8.36842
9.70609
11.3792
13.3942
15.659
19.3006
15.0594
5.79915
4.80642
4.41246
4.12273
3.87831
3.67151
3.49901
3.35704
3.24155
3.14864
3.07474
3.01672
2.97183
2.93771
2.91237
2.89411
2.88152
2.87342
2.86882
2.86692
2.86705
2.86867
2.87133
2.87469
2.87844
2.88238
2.8863
2.89009
2.89365
2.89692
2.89958
2.90092
2.90064
2.89884
2.8957
2.89137
2.88596
2.87954
2.87219
2.86401
2.85511
2.84566
2.83583
2.82589
2.81612
2.80691
2.7987
2.792
2.78731
2.78492
2.78526
2.78877
2.79614
2.80797
2.82454
2.84655
2.87505
2.91123
2.95647
3.01235
3.08067
3.16362
3.26383
3.38459
3.53009
3.70575
3.91874
4.17864
4.49845
4.8959
5.39529
6.03004
6.84602
7.90611
9.2964
11.1326
13.5609
16.7752
21.805
15.1597
5.69007
4.62182
4.21473
3.92698
3.68818
3.4878
3.3217
3.18589
3.07631
2.98909
2.92071
2.86803
2.82835
2.7993
2.77889
2.76543
2.75748
2.75387
2.75361
2.75587
2.75999
2.76543
2.77173
2.77854
2.78557
2.79259
2.79942
2.80595
2.81209
2.81781
2.82269
2.82609
2.82765
2.82742
2.8256
2.82234
2.81774
2.81187
2.80482
2.79666
2.78751
2.7775
2.76683
2.75573
2.74451
2.73356
2.72336
2.71445
2.70742
2.70262
2.70051
2.70146
2.70584
2.7141
2.72662
2.74401
2.76723
2.79743
2.83587
2.88397
2.94337
3.01603
3.10431
3.21121
3.34053
3.49726
3.6881
3.92217
4.21211
4.5756
5.03766
5.63386
6.41512
7.45482
8.86028
10.7933
13.5128
17.5098
24.3534
15.2358
5.60004
4.46401
4.04471
3.75878
3.52508
3.33026
3.1695
3.03873
2.93395
2.85134
2.78742
2.7391
2.70367
2.6788
2.66248
2.65301
2.64895
2.64911
2.65249
2.65827
2.66576
2.67441
2.68377
2.69348
2.70325
2.71285
2.72211
2.73092
2.73924
2.74701
2.75396
2.75943
2.76293
2.76446
2.76421
2.76235
2.75901
2.75427
2.7482
2.74088
2.7324
2.7229
2.71254
2.70154
2.69018
2.67884
2.66801
2.65826
2.65022
2.64435
2.64109
2.64082
2.64382
2.65024
2.66043
2.67498
2.69477
2.72085
2.75437
2.79663
2.8491
2.91353
2.99204
3.08729
3.20271
3.34284
3.51384
3.72425
3.98613
4.3168
4.74144
5.29704
6.0385
7.04822
8.45221
10.451
13.3943
18.0455
26.958
15.2997
5.52595
4.32893
3.8977
3.61298
3.38364
3.19352
3.03717
2.91051
2.80958
2.73065
2.6703
2.62548
2.59349
2.572
2.559
2.55278
2.55192
2.55518
2.56157
2.57026
2.58054
2.59187
2.60379
2.61592
2.62799
2.63976
2.6511
2.66189
2.67211
2.68174
2.69063
2.69815
2.70369
2.70717
2.70877
2.70868
2.70706
2.70399
2.69956
2.69384
2.68692
2.6789
2.66994
2.6602
2.64993
2.63946
2.62926
2.61992
2.61211
2.60638
2.60318
2.60285
2.60563
2.61155
2.6209
2.63418
2.65218
2.67584
2.70619
2.74441
2.7918
2.84995
2.92073
3.00652
3.11037
3.23636
3.39011
3.57952
3.81596
4.11617
4.50516
5.02085
5.72165
6.6987
8.09701
10.1558
13.3067
18.5449
29.682
15.3661
5.46543
4.21379
3.77074
3.48644
3.26062
3.07436
2.92163
2.79826
2.7004
2.62438
2.56684
2.52475
2.49545
2.47662
2.46624
2.4626
2.46427
2.47003
2.47886
2.48992
2.50251
2.51607
2.53014
2.54434
2.55839
2.57208
2.58527
2.59789
2.60991
2.62134
2.63209
2.64167
2.64939
2.65506
2.65881
2.66087
2.66139
2.6605
2.65829
2.65482
2.65018
2.64447
2.63779
2.63029
2.62215
2.61364
2.60516
2.5973
2.59077
2.58619
2.58404
2.58464
2.58818
2.59471
2.60443
2.61776
2.63538
2.65809
2.6868
2.72256
2.76656
2.82018
2.88511
2.96345
3.0579
3.17211
3.31114
3.48221
3.69594
3.9683
4.32383
4.80102
5.4614
6.40517
7.7987
9.9273
13.3166
19.1566
32.6863
15.457
5.41736
4.11733
3.66258
3.37773
3.15448
2.97128
2.82143
2.70068
2.60521
2.53143
2.47601
2.43597
2.40868
2.39182
2.3834
2.38172
2.38533
2.39302
2.40377
2.41675
2.43125
2.4467
2.46263
2.47867
2.49454
2.51002
2.52499
2.53938
2.55318
2.56645
2.5791
2.59078
2.60083
2.60894
2.61517
2.61973
2.62281
2.62453
2.625
2.62431
2.62253
2.61975
2.61606
2.61155
2.60637
2.60069
2.59486
2.58939
2.585
2.58242
2.58213
2.58448
2.58965
2.5977
2.60879
2.62326
2.64165
2.66462
2.69298
2.72766
2.76969
2.82033
2.88105
2.95372
3.04072
3.14526
3.27184
3.42701
3.62052
3.86742
4.19143
4.63101
5.25032
6.15857
7.54622
9.75618
13.4446
20.0768
36.1719
15.6156
5.38328
4.04027
3.57385
3.28721
3.06539
2.88437
2.73669
2.61792
2.52423
2.45205
2.39811
2.35947
2.33354
2.31802
2.31095
2.31064
2.31566
2.32479
2.33704
2.35156
2.36767
2.38479
2.40243
2.42022
2.43786
2.45513
2.4719
2.48811
2.50376
2.51891
2.53355
2.54743
2.55995
2.57071
2.57972
2.58712
2.5931
2.5978
2.60135
2.60383
2.60533
2.60594
2.60573
2.60478
2.60317
2.60102
2.59856
2.59625
2.59477
2.5949
2.59717
2.60201
2.60957
2.61991
2.63317
2.64961
2.66964
2.69384
2.72288
2.75757
2.79882
2.84773
2.90561
2.97413
3.05532
3.15199
3.2681
3.40946
3.58491
3.80831
4.10218
4.50406
5.07972
5.94642
7.31981
9.61025
13.6461
21.3007
40.4561
15.9104
5.37503
3.98909
3.50837
3.21738
2.99527
2.81539
2.66911
2.55166
2.4591
2.3879
2.33482
2.29696
2.2718
2.25707
2.25081
2.25137
2.25735
2.26756
2.281
2.29684
2.31439
2.3331
2.35243
2.37199
2.39147
2.41063
2.42931
2.44746
2.46506
2.4822
2.49892
2.51504
2.53009
2.54366
2.55565
2.56614
2.57529
2.58326
2.59015
2.59609
2.60116
2.60545
2.60904
2.61199
2.61438
2.61625
2.61775
2.61924
2.62133
2.62482
2.63035
2.63835
2.64893
2.66218
2.67819
2.69717
2.71947
2.74554
2.77599
2.81149
2.85284
2.90097
2.95704
3.02262
3.09934
3.18956
3.29679
3.42607
3.58517
3.78662
4.05119
4.4141
4.94119
5.75559
7.09706
9.44999
13.8511
22.7214
45.9535
16.5395
5.42416
3.97546
3.47166
3.17161
2.94723
2.76741
2.62168
2.50491
2.41288
2.34216
2.28948
2.25185
2.22718
2.21294
2.20717
2.20829
2.21494
2.22599
2.24049
2.25761
2.27663
2.29696
2.3181
2.3396
2.36109
2.38229
2.40303
2.42321
2.44285
2.46202
2.48083
2.4992
2.51676
2.53314
2.54816
2.56185
2.57431
2.58566
2.59604
2.60555
2.6143
2.62238
2.62989
2.6369
2.64346
2.64962
2.65544
2.66119
2.66745
2.67491
2.68432
2.69599
2.71007
2.72664
2.74578
2.76763
2.7925
2.82083
2.85315
2.89004
2.93213
2.98022
3.03528
3.09852
3.1715
3.25628
3.35578
3.47427
3.61828
3.79874
4.03449
4.35562
4.8259
5.56927
6.84431
9.21523
13.9863
24.3105
53.2469
17.5546
5.67817
4.03779
3.4892
3.16541
2.92828
2.74409
2.59815
2.48148
2.38947
2.31962
2.26804
2.23131
2.20705
2.19309
2.18763
2.18918
2.19647
2.20842
2.22412
2.24276
2.26363
2.28606
2.30943
2.33322
2.35693
2.38023
2.40295
2.42505
2.44656
2.46762
2.48842
2.50888
2.52875
2.5477
2.56553
2.58221
2.5978
2.61239
2.62611
2.63905
2.65134
2.66309
2.67438
2.68532
2.69597
2.70638
2.7166
2.72681
2.73757
2.74948
2.76309
2.77874
2.79657
2.81663
2.83891
2.86352
2.8909
2.92152
2.95579
2.99417
3.03717
3.08544
3.13982
3.20132
3.2713
3.35153
3.44448
3.55368
3.68437
3.84487
4.04927
4.32368
4.72452
5.36341
6.49267
8.71128
13.6027
25.2826
62.8856
13.9638
5.9105
4.25158
3.60226
3.22549
2.95999
2.75992
2.60537
2.4862
2.39773
2.33124
2.28223
2.24737
2.22432
2.21126
2.20664
2.20911
2.21752
2.23086
2.24827
2.26897
2.29221
2.31726
2.34331
2.36958
2.39538
2.42019
2.44408
2.46724
2.4899
2.51228
2.53449
2.55644
2.57794
2.59872
2.6186
2.63751
2.65551
2.67265
2.68904
2.70479
2.72001
2.73483
2.74934
2.76367
2.77789
2.79208
2.8063
2.82072
2.83586
2.85217
2.86996
2.88952
2.91097
2.93432
2.95931
2.98644
3.01621
3.04894
3.08492
3.12454
3.16821
3.2165
3.27009
3.32984
3.3969
3.47277
3.55948
3.65988
3.77803
3.92012
4.0962
4.32441
4.64169
5.13058
5.98412
7.61082
11.0615
18.5175
32.2232
11.2165
6.09491
4.5626
3.80557
3.36798
3.06123
2.83549
2.66355
2.54247
2.45741
2.39747
2.35498
2.32485
2.30508
2.29448
2.29187
2.29618
2.3064
2.32166
2.34116
2.3641
2.38966
2.41686
2.4446
2.47174
2.49718
2.52102
2.54391
2.56628
2.58859
2.61091
2.63317
2.65527
2.67698
2.6981
2.71851
2.73819
2.75716
2.7755
2.79329
2.81064
2.82765
2.84444
2.86113
2.87783
2.89466
2.91171
2.92908
2.94701
2.9657
2.98546
3.00676
3.02962
3.05409
3.08019
3.10809
3.13785
3.16976
3.20408
3.24113
3.28126
3.32488
3.37248
3.42462
3.48204
3.54568
3.61678
3.69698
3.78848
3.89432
4.01883
4.16864
4.35471
4.5978
4.94411
5.47635
6.34431
7.66814
9.59372
11.8378
9.6475
6.26017
4.85997
4.0729
3.59521
3.25374
3.0018
2.82694
2.71391
2.63909
2.58975
2.55743
2.5342
2.51928
2.51203
2.51167
2.51735
2.52826
2.54359
2.56257
2.58436
2.608
2.63236
2.65584
2.67742
2.69682
2.71527
2.73316
2.75101
2.77006
2.78978
2.80961
2.82925
2.84846
2.86712
2.88527
2.90313
2.9207
2.93801
2.9551
2.97208
2.98906
3.00616
3.02348
3.04112
3.0592
3.07784
3.09721
3.11758
3.13846
3.1602
3.18343
3.2083
3.23478
3.2628
3.2928
3.32465
3.35823
3.39342
3.43064
3.47028
3.51277
3.55858
3.60822
3.6623
3.72161
3.78712
3.8601
3.94218
4.03553
4.14307
4.26903
4.42016
4.61212
4.86984
5.21855
5.6895
6.31925
7.1064
7.82657
8.58727
6.35466
5.16455
4.43634
3.96523
3.62721
3.38256
3.23218
3.139
3.07406
3.02492
2.98549
2.95553
2.93429
2.92054
2.91323
2.91144
2.91434
2.92114
2.93108
2.94341
2.95732
2.97195
2.98639
3.00026
3.01415
3.02816
3.0421
3.05597
3.07004
3.08378
3.09685
3.10915
3.12068
3.13161
3.14242
3.15435
3.16685
3.17964
3.19275
3.2064
3.2207
3.23572
3.25151
3.26812
3.28567
3.30433
3.32438
3.34523
3.36654
3.38852
3.41155
3.43616
3.46245
3.49039
3.51986
3.55139
3.58471
3.61973
3.65608
3.69408
3.73415
3.77682
3.8226
3.87206
3.92583
3.98468
4.04956
4.12162
4.20232
4.2936
4.39839
4.52231
4.67712
4.87384
5.11935
5.421
5.78382
6.19116
6.56331
7.95453
6.54899
5.63708
5.0339
4.64853
4.37784
4.17961
4.02454
3.89791
3.79181
3.70221
3.62848
3.57097
3.52617
3.49155
3.46524
3.44577
3.43201
3.42299
3.41789
3.41593
3.41645
3.4189
3.42335
3.42954
3.4371
3.44582
3.45519
3.46448
3.47226
3.47882
3.48453
3.48953
3.49388
3.49764
3.50095
3.5043
3.50773
3.51152
3.51621
3.52295
3.53155
3.54187
3.5538
3.56728
3.5824
3.59942
3.61793
3.63702
3.65657
3.67663
3.69744
3.71931
3.74257
3.76752
3.79412
3.82216
3.85206
3.88397
3.91761
3.95291
3.98934
4.02759
4.06813
4.11156
4.15847
4.20948
4.26527
4.32665
4.39454
4.47025
4.55603
4.65712
4.78108
4.93191
5.11102
5.31923
5.55466
5.80408
6.0317
7.88421
7.01559
6.38007
5.93773
5.60681
5.34651
5.13402
4.95514
4.7987
4.66212
4.54363
4.44435
4.36155
4.29219
4.23386
4.18464
4.143
4.10769
4.07768
4.05215
4.03038
4.01184
3.99615
3.98303
3.97244
3.96396
3.95707
3.95155
3.94706
3.94324
3.93993
3.93714
3.93482
3.93287
3.93105
3.92898
3.92566
3.92189
3.91841
3.91583
3.91498
3.91655
3.92095
3.9278
3.93694
3.94855
3.96216
3.97665
3.99178
4.00737
4.02338
4.03992
4.05719
4.07534
4.09463
4.11555
4.13797
4.16176
4.18717
4.21475
4.24423
4.27547
4.30849
4.34272
4.379
4.41786
4.45989
4.50564
4.55566
4.61052
4.67113
4.73939
4.81999
4.91691
5.03122
5.1625
5.30958
5.46928
5.63263
5.78174
8.23123
7.64735
7.17205
6.81215
6.52413
6.2831
6.07543
5.89357
5.7314
5.58688
5.45916
5.34597
5.24565
5.15661
5.07741
5.00669
4.94325
4.8861
4.83436
4.78731
4.74435
4.70496
4.6687
4.63533
4.60488
4.57737
4.55198
4.52851
4.50678
4.48661
4.46792
4.45072
4.43503
4.42087
4.40817
4.39684
4.38672
4.3779
4.37053
4.36467
4.36016
4.35807
4.35843
4.36118
4.3666
4.37391
4.38212
4.39107
4.40057
4.41048
4.42073
4.43135
4.44243
4.4541
4.46646
4.47975
4.4945
4.51047
4.52778
4.54654
4.56696
4.58976
4.61443
4.64105
4.66961
4.69973
4.732
4.76698
4.80507
4.84669
4.89253
4.94443
5.00588
5.07868
5.16288
5.25754
5.36098
5.47023
5.57939
5.67882
8.76265
8.38644
8.00804
7.67698
7.39867
7.16649
6.9661
6.78863
6.63085
6.48818
6.35732
6.23674
6.12557
6.02283
5.9279
5.84019
5.75894
5.68351
5.61327
5.54761
5.48598
5.42795
5.37312
5.32125
5.27225
5.22631