/*--------------------------------*- C++ -*----------------------------------*\
| =========                 |                                                 |
| \\      /  F ield         | OpenFOAM: The Open Source CFD Toolbox           |
|  \\    /   O peration     | Version:  v2012                                 |
|   \\  /    A nd           | Website:  www.openfoam.com                      |
|    \\/     M anipulation  |                                                 |
\*---------------------------------------------------------------------------*/
FoamFile
{
    version     2.0;
    format      ascii;
    class       volScalarField;
    location    "604";
    object      p;
}
// * * * * * * * * * * * * * * * * * * * * * * * * * * * * * * * * * * * * * //

dimensions      [0 2 -2 0 0 0 0];


internalField   nonuniform List<scalar> 
6532
(
0.401165
0.400281
0.399808
0.399607
0.399521
0.399521
0.399607
0.399807
0.400279
0.401164
0.400148
0.399888
0.399664
0.399523
0.399455
0.399454
0.399522
0.399663
0.399886
0.400146
0.399458
0.399467
0.39938
0.399291
0.399247
0.399247
0.39929
0.399378
0.399465
0.399456
0.399045
0.399115
0.399069
0.399005
0.398976
0.398976
0.399003
0.399067
0.399113
0.399043
0.398713
0.398794
0.398763
0.398709
0.398687
0.398686
0.398707
0.398759
0.39879
0.398709
0.398392
0.398472
0.39845
0.398406
0.398386
0.398385
0.398403
0.398444
0.398466
0.398386
0.398077
0.398149
0.398128
0.398093
0.398075
0.398073
0.398088
0.398121
0.39814
0.398068
0.397768
0.397831
0.397808
0.397775
0.397759
0.397756
0.397768
0.397797
0.397818
0.397754
0.397463
0.397517
0.397492
0.397459
0.397442
0.397438
0.397448
0.397475
0.397497
0.397443
0.397159
0.397206
0.397179
0.397145
0.397126
0.397121
0.397128
0.397153
0.397176
0.397129
0.396858
0.396898
0.396868
0.396833
0.396812
0.396803
0.396808
0.39683
0.396853
0.396812
0.39656
0.396594
0.396561
0.396524
0.396499
0.396486
0.396487
0.396505
0.396527
0.396491
0.396267
0.396295
0.39626
0.396218
0.396187
0.396168
0.396163
0.396175
0.396195
0.396164
0.395982
0.396006
0.395966
0.395918
0.395878
0.395849
0.395835
0.39584
0.395856
0.395828
0.395711
0.39573
0.395683
0.395624
0.395571
0.395528
0.3955
0.395494
0.395505
0.39548
0.395458
0.395472
0.395416
0.395342
0.395268
0.395202
0.395154
0.395133
0.395138
0.395115
0.395233
0.395241
0.395171
0.395076
0.39497
0.394869
0.39479
0.394747
0.394744
0.394726
0.39505
0.39505
0.394961
0.394834
0.394687
0.394535
0.394402
0.394318
0.394309
0.394308
0.394927
0.394918
0.394803
0.394629
0.39442
0.394188
0.393963
0.393798
0.393779
0.393886
0.394889
0.394869
0.394723
0.394488
0.394187
0.393834
0.393464
0.393179
0.393135
0.393555
0.394968
0.394939
0.394756
0.394446
0.394027
0.3935
0.392855
0.392147
0.391282
0.387397
0.39521
0.395179
0.394959
0.394572
0.394035
0.393353
0.392458
0.391246
0.390576
0.392482
0.395669
0.395639
0.395387
0.39493
0.394287
0.393489
0.392509
0.391076
0.389296
0.390991
0.396391
0.396368
0.396086
0.395559
0.39481
0.393871
0.392758
0.391189
0.388496
0.38918
0.397423
0.397408
0.397093
0.396492
0.395626
0.394526
0.393233
0.391609
0.388662
0.388769
0.398817
0.398811
0.398458
0.39777
0.396775
0.395505
0.394003
0.392256
0.389061
0.388165
0.40063
0.400632
0.400232
0.399441
0.398293
0.396821
0.395063
0.39311
0.389746
0.387595
0.402929
0.402938
0.402479
0.401564
0.400228
0.398509
0.39643
0.394155
0.39066
0.387353
0.405793
0.405806
0.405275
0.404208
0.402645
0.400629
0.39816
0.395388
0.391625
0.387749
0.409312
0.409326
0.408709
0.407465
0.405636
0.403275
0.400386
0.397075
0.392885
0.388641
0.413591
0.413599
0.412888
0.411437
0.409301
0.406546
0.403196
0.399352
0.394674
0.389938
0.418762
0.418773
0.417934
0.416237
0.413745
0.410527
0.406629
0.402171
0.397004
0.39165
0.424956
0.42497
0.42397
0.421988
0.419081
0.41532
0.410766
0.405544
0.399769
0.393705
0.432301
0.432303
0.431131
0.42883
0.425447
0.421058
0.415745
0.409626
0.402995
0.396103
0.440962
0.440948
0.439589
0.436931
0.43301
0.427907
0.421723
0.414599
0.406889
0.398964
0.451118
0.451091
0.449526
0.446473
0.441959
0.436063
0.428895
0.420633
0.411658
0.402484
0.462942
0.46291
0.461124
0.457647
0.452496
0.445744
0.437501
0.427969
0.41757
0.406941
0.476588
0.476571
0.474553
0.470635
0.464823
0.457178
0.447806
0.436919
0.424973
0.412709
0.491997
0.491955
0.48968
0.485324
0.478859
0.470332
0.459841
0.447596
0.434067
0.420068
0.509095
0.508999
0.506473
0.501694
0.494608
0.485242
0.473685
0.460139
0.445066
0.429319
0.528064
0.527962
0.525213
0.520037
0.51237
0.502226
0.489683
0.474928
0.458401
0.440948
0.548965
0.548861
0.545894
0.54035
0.532163
0.521331
0.507921
0.492103
0.474281
0.455252
0.571763
0.571641
0.56845
0.562563
0.553923
0.542508
0.528382
0.511692
0.492798
0.472418
0.596295
0.59613
0.592704
0.586494
0.577465
0.565583
0.550909
0.533572
0.513881
0.492455
0.622308
0.622063
0.618382
0.611856
0.602496
0.590259
0.575209
0.557464
0.53728
0.515169
0.649465
0.649095
0.645122
0.638271
0.628621
0.61613
0.60087
0.582948
0.562576
0.540163
0.677333
0.676792
0.672475
0.665272
0.655359
0.6427
0.627374
0.609487
0.58921
0.566862
0.7054
0.70463
0.699906
0.692312
0.682155
0.669402
0.654137
0.636468
0.61653
0.594565
0.733069
0.731999
0.726797
0.718779
0.708403
0.695634
0.68055
0.663256
0.643858
0.622531
0.759641
0.758166
0.752436
0.744005
0.733472
0.720791
0.70602
0.68925
0.670557
0.650061
0.784279
0.782293
0.776045
0.767289
0.756734
0.744301
0.730009
0.713925
0.696086
0.676562
0.805893
0.803365
0.796765
0.787925
0.777595
0.765659
0.752076
0.736866
0.720031
0.701592
0.822783
0.820408
0.813885
0.805285
0.795547
0.78447
0.771894
0.75779
0.742119
0.724866
0.832861
0.832008
0.826669
0.818919
0.810273
0.800499
0.789285
0.776542
0.762207
0.74623
0.836654
0.837149
0.83423
0.828493
0.821666
0.813707
0.804232
0.793111
0.780266
0.765629
0.837519
0.838165
0.837277
0.834185
0.829843
0.82418
0.816794
0.807519
0.796275
0.78301
0.837453
0.837579
0.837524
0.836786
0.835165
0.832134
0.827156
0.819957
0.810417
0.798516
0.837355
0.836753
0.83677
0.837562
0.838291
0.837832
0.835343
0.830308
0.822498
0.811939
0.838109
0.837005
0.836836
0.838191
0.840552
0.842217
0.841776
0.838427
0.831975
0.822539
0.839272
0.838641
0.83864
0.840308
0.84332
0.846152
0.847462
0.845629
0.840608
0.832841
0.368668
0.371323
0.372976
0.374598
0.375998
0.37707
0.377784
0.378049
0.377898
0.377389
0.376505
0.375392
0.374195
0.372931
0.371725
0.370724
0.37003
0.369697
0.369772
0.370257
0.371064
0.372007
0.37282
0.373275
0.373431
0.376266
0.372864
0.372378
0.373182
0.374191
0.375101
0.375795
0.376148
0.376042
0.375494
0.374614
0.373553
0.372451
0.371373
0.370401
0.36962
0.369099
0.368899
0.369056
0.369571
0.370389
0.37139
0.372393
0.373112
0.373452
0.376636
0.373376
0.372312
0.372484
0.37307
0.373665
0.37411
0.374292
0.374145
0.373675
0.372942
0.37205
0.371112
0.370208
0.369413
0.368794
0.368405
0.368278
0.36843
0.36886
0.369536
0.370387
0.371312
0.372161
0.372774
0.375327
0.372429
0.37144
0.371561
0.372141
0.372711
0.373101
0.373224
0.373045
0.372577
0.371876
0.371024
0.370123
0.369263
0.368521
0.367955
0.367606
0.367495
0.367629
0.367999
0.368569
0.369277
0.370044
0.370806
0.371502
0.375816
0.371628
0.370162
0.370279
0.371026
0.371718
0.372202
0.372373
0.372217
0.371761
0.371065
0.370218
0.369319
0.368464
0.367731
0.367176
0.366831
0.366708
0.366805
0.367108
0.367588
0.368188
0.368834
0.36948
0.370159
0.377029
0.371681
0.369351
0.369301
0.370014
0.370773
0.371343
0.37159
0.371482
0.371055
0.370373
0.36953
0.36863
0.367773
0.36704
0.366486
0.366136
0.365997
0.366056
0.366297
0.366691
0.36719
0.36773
0.368253
0.368824
0.377692
0.372225
0.369434
0.369008
0.369436
0.370102
0.370659
0.370948
0.370882
0.370484
0.369817
0.368977
0.368074
0.367213
0.366477
0.365919
0.365564
0.365409
0.365435
0.365622
0.365938
0.366341
0.366775
0.367174
0.367619
0.378116
0.37316
0.370307
0.36938
0.369412
0.369857
0.370319
0.370565
0.370506
0.370121
0.369459
0.368612
0.367696
0.366822
0.366076
0.365512
0.365148
0.364977
0.364976
0.365117
0.365366
0.365683
0.366021
0.366314
0.36665
0.379186
0.374518
0.371637
0.370321
0.370009
0.370197
0.370476
0.370599
0.370468
0.37005
0.369371
0.368495
0.367547
0.366642
0.365873
0.36529
0.36491
0.364722
0.364695
0.364797
0.364992
0.365239
0.365495
0.365703
0.365946
0.380857
0.376316
0.373387
0.371802
0.371195
0.371099
0.37114
0.371086
0.37082
0.370315
0.369603
0.368678
0.367669
0.366709
0.365894
0.365276
0.364865
0.364649
0.364596
0.364666
0.364817
0.365008
0.365197
0.365335
0.365498
0.382832
0.378378
0.375426
0.373665
0.372807
0.372445
0.37226
0.372021
0.371606
0.370965
0.370131
0.369172
0.368092
0.36705
0.366163
0.365486
0.365022
0.364761
0.364677
0.36472
0.364837
0.364984
0.365116
0.365197
0.365296
0.384942
0.380529
0.377566
0.375699
0.374655
0.374087
0.3737
0.373291
0.372755
0.372007
0.371034
0.369965
0.36883
0.367694
0.36671
0.365948
0.365402
0.365066
0.364934
0.364948
0.36504
0.365154
0.365243
0.36528
0.365324
0.387099
0.382636
0.37962
0.377677
0.37651
0.375791
0.375248
0.374705
0.374067
0.373277
0.372284
0.371098
0.369876
0.368661
0.367568
0.366689
0.366026
0.365576
0.365373
0.365352
0.365421
0.365507
0.365558
0.365557
0.365563
0.389294
0.384609
0.381451
0.379412
0.378146
0.377321
0.376679
0.376061
0.375376
0.374575
0.37362
0.372481
0.371183
0.369907
0.368733
0.367707
0.366888
0.366315
0.366002
0.365916
0.365952
0.36601
0.366029
0.365995
0.365963
0.391619
0.386473
0.383014
0.380791
0.379403
0.378489
0.377787
0.377143
0.376471
0.375723
0.374857
0.373838
0.372633
0.371325
0.370108
0.369
0.367995
0.367267
0.366826
0.366622
0.366584
0.366607
0.366601
0.366539
0.366467
0.39426
0.388369
0.384384
0.381824
0.380228
0.379194
0.378434
0.377784
0.377161
0.376513
0.375798
0.374966
0.373986
0.372821
0.371587
0.37046
0.369378
0.368413
0.367812
0.36749
0.367321
0.367256
0.36722
0.367135
0.367002
0.397512
0.390562
0.38577
0.38265
0.380697
0.379454
0.378596
0.377926
0.377349
0.376817
0.376285
0.375698
0.375011
0.374195
0.373165
0.372062
0.371056
0.369972
0.369006
0.368465
0.368216
0.368023
0.367864
0.367707
0.367467
0.401771
0.393438
0.387511
0.383552
0.381024
0.379424
0.378369
0.377624
0.377061
0.376624
0.376275
0.375958
0.375611
0.375184
0.374632
0.37395
0.373149
0.372182
0.370963
0.369821
0.369144
0.368896
0.368718
0.368341
0.367706
0.407399
0.397398
0.390014
0.384908
0.381543
0.379381
0.377988
0.377069
0.376454
0.376062
0.375856
0.375787
0.375789
0.375808
0.375798
0.375695
0.375434
0.374997
0.374097
0.372514
0.370787
0.369436
0.368885
0.368567
0.367132
0.41479
0.402893
0.393752
0.387181
0.382686
0.379715
0.37779
0.376553
0.375779
0.375351
0.375219
0.375341
0.375656
0.37611
0.376656
0.377232
0.377753
0.378122
0.378127
0.377359
0.375654
0.372998
0.37041
0.369959
0.371621
0.424489
0.410515
0.399328
0.390952
0.384987
0.380897
0.378175
0.376417
0.375332
0.37475
0.374596
0.374824
0.375386
0.376237
0.377343
0.378668
0.380161
0.381749
0.383329
0.384667
0.385218
0.385188
0.384754
0.38436
0.385542
0.436909
0.420779
0.407328
0.396831
0.389043
0.383488
0.379658
0.377108
0.375499
0.374603
0.374291
0.374497
0.375182
0.376315
0.377872
0.379836
0.382192
0.384947
0.388115
0.391585
0.39509
0.398522
0.402245
0.406399
0.410457
0.452358
0.434127
0.418313
0.40545
0.395508
0.388129
0.382839
0.379178
0.376767
0.375325
0.37467
0.374695
0.375341
0.376589
0.378436
0.380846
0.383753
0.387105
0.390882
0.395041
0.399474
0.404162
0.40932
0.415024
0.420727
0.470968
0.450848
0.43273
0.417386
0.405037
0.395497
0.388382
0.383255
0.379714
0.377434
0.376181
0.375802
0.376215
0.377407
0.379383
0.382034
0.385226
0.388867
0.392883
0.397272
0.40203
0.407066
0.412254
0.417494
0.422686
0.492646
0.470998
0.450824
0.433067
0.418194
0.406241
0.396969
0.390009
0.384974
0.381513
0.379349
0.378276
0.378176
0.379046
0.380876
0.383495
0.386716
0.390429
0.39457
0.399069
0.403822
0.408725
0.413659
0.418465
0.422977
0.517052
0.494352
0.472551
0.452661
0.435348
0.420882
0.409213
0.400099
0.393206
0.388194
0.384758
0.382646
0.381684
0.381886
0.383226
0.385499
0.388505
0.39212
0.396225
0.400679
0.405336
0.410061
0.41472
0.419168
0.423262
0.543617
0.520394
0.497523
0.475979
0.456541
0.439677
0.425545
0.414068
0.405021
0.398111
0.39304
0.389531
0.387353
0.386476
0.386966
0.388643
0.391181
0.394407
0.398197
0.402396
0.406834
0.411342
0.415761
0.419939
0.423751
0.571597
0.548363
0.525022
0.502433
0.481388
0.462479
0.446046
0.432189
0.420828
0.411769
0.404759
0.399529
0.395823
0.393515
0.392762
0.393478
0.395231
0.397766
0.400952
0.404641
0.408648
0.412788
0.416892
0.420801
0.424382
0.60017
0.577357
0.554095
0.531092
0.509071
0.488659
0.470314
0.454291
0.440665
0.429366
0.420231
0.413042
0.407558
0.403569
0.401167
0.400469
0.401135
0.402721
0.40502
0.407908
0.411219
0.414765
0.41837
0.421877
0.425148
0.628543
0.606465
0.583712
0.560837
0.538455
0.517157
0.497443
0.479671
0.464044
0.450622
0.439354
0.430107
0.422698
0.416915
0.412656
0.410058
0.409174
0.409574
0.410793
0.412651
0.415011
0.417719
0.420606
0.423511
0.426293
0.656042
0.634894
0.612926
0.590565
0.56831
0.546682
0.526165
0.507159
0.48995
0.474707
0.461485
0.450248
0.440899
0.433293
0.427276
0.422773
0.419837
0.418398
0.418206
0.418916
0.420207
0.421913
0.423902
0.426019
0.428128
0.682159
0.662039
0.640994
0.619359
0.597541
0.575981
0.555122
0.535364
0.517032
0.500362
0.485493
0.472479
0.461303
0.451896
0.44416
0.437986
0.433222
0.429817
0.427736
0.426753
0.426622
0.42716
0.428168
0.429414
0.430742
0.70657
0.687503
0.667413
0.646575
0.625326
0.604048
0.58314
0.562982
0.543908
0.526188
0.510017
0.495512
0.482722
0.471642
0.462223
0.454389
0.448035
0.443053
0.439263
0.436535
0.434799
0.433869
0.433537
0.433631
0.434003
0.729095
0.711063
0.691891
0.671818
0.65114
0.630202
0.609369
0.589003
0.569437
0.550953
0.533776
0.518064
0.503916
0.491372
0.480426
0.471036
0.463129
0.456609
0.451349
0.447226
0.4441
0.441765
0.440073
0.438954
0.438293
0.749646
0.73259
0.714249
0.694851
0.674669
0.654025
0.633269
0.612756
0.592817
0.573741
0.555768
0.539081
0.523808
0.510025
0.497759
0.486996
0.477689
0.469763
0.46312
0.457642
0.4532
0.449652
0.44687
0.444736
0.44312
0.768153
0.751998
0.734372
0.715509
0.695684
0.675225
0.654481
0.63381
0.613542
0.593969
0.575337
0.557846
0.541643
0.526826
0.513447
0.501516
0.491007
0.481864
0.474008
0.467339
0.461744
0.457102
0.453287
0.450181
0.447662
0.784692
0.769287
0.752198
0.733694
0.714047
0.693587
0.672703
0.651788
0.631174
0.611141
0.591936
0.573764
0.556785
0.541111
0.526812
0.513914
0.502408
0.492254
0.483388
0.475725
0.469166
0.463604
0.458922
0.45499
0.451697
0.799063
0.784245
0.767472
0.749095
0.729477
0.708975
0.687947
0.666778
0.645829
0.625385
0.60569
0.58695
0.569334
0.552963
0.537919
0.524238
0.511926
0.500954
0.491269
0.482795
0.475447
0.469104
0.463754
0.459198
0.455245
0.810312
0.795783
0.779143
0.760814
0.741139
0.720502
0.699308
0.677921
0.656672
0.635859
0.615734
0.596513
0.578372
0.561443
0.545813
0.53153
0.518606
0.507021
0.496732
0.487671
0.479756
0.472892
0.466996
0.461939
0.457586
0.821795
0.807751
0.791324
0.773082
0.753365
0.73254
0.711034
0.689248
0.667529
0.646187
0.625481
0.605641
0.586861
0.569284
0.553005
0.53808
0.524528
0.512337
0.501469
0.49186
0.483433
0.476096
0.469753
0.464304
0.459639
0.364119
0.364196
0.364624
0.371775
0.370765
0.379208
0.389183
0.395169
0.405982
0.4148
0.419704
0.424929
0.425425
0.429141
0.432068
0.427162
0.430691
0.433345
0.426802
0.429934
0.432489
0.426667
0.42942
0.43171
0.426893
0.429408
0.4315
0.427338
0.429702
0.431672
0.427887
0.430103
0.43197
0.428681
0.430657
0.432355
0.429998
0.43159
0.432992
0.431983
0.43308
0.434073
0.434492
0.435006
0.435521
0.437957
0.437795
0.437709
0.441968
0.441112
0.440393
0.445747
0.444264
0.442995
0.449134
0.447119
0.445371
0.452138
0.449672
0.447514
0.45409
0.451309
0.448894
0.455829
0.452719
0.450057
0.455826
0.455774
0.455643
0.455183
0.454053
0.452272
0.450005
0.447413
0.444639
0.441791
0.438948
0.436161
0.433464
0.430876
0.42841
0.426069
0.423855
0.421765
0.419797
0.417946
0.416208
0.414578
0.413051
0.411623
0.410288
0.409044
0.407885
0.406808
0.40581
0.404888
0.404039
0.40326
0.40255
0.401907
0.401332
0.400824
0.400386
0.40002
0.399729
0.39952
0.399396
0.399366
0.399439
0.399629
0.399941
0.400384
0.400967
0.401707
0.40262
0.403721
0.405021
0.40653
0.40826
0.410223
0.41243
0.41489
0.417611
0.420597
0.423849
0.427361
0.431119
0.435098
0.439258
0.44354
0.447863
0.452122
0.456157
0.459739
0.462618
0.464638
0.465883
0.466362
0.465919
0.464727
0.463103
0.461399
0.460287
0.460004
0.460356
0.460836
0.455965
0.455813
0.455592
0.454849
0.453461
0.451568
0.449271
0.446711
0.444005
0.441243
0.438492
0.435795
0.43318
0.430667
0.428265
0.425979
0.42381
0.421759
0.419823
0.417998
0.416281
0.414668
0.413154
0.411736
0.410409
0.40917
0.408015
0.40694
0.405943
0.40502
0.404169
0.403387
0.402671
0.402021
0.401435
0.400914
0.40046
0.400074
0.39976
0.399523
0.399369
0.399305
0.399337
0.39947
0.39972
0.400096
0.400613
0.401281
0.402108
0.403108
0.404294
0.40568
0.407275
0.40909
0.411133
0.41341
0.415929
0.418691
0.421696
0.424938
0.428404
0.432071
0.435903
0.43985
0.443843
0.447793
0.45158
0.455051
0.458045
0.460429
0.462142
0.463124
0.463284
0.462588
0.461267
0.459834
0.458797
0.458539
0.459118
0.460008
0.456073
0.455511
0.454736
0.453513
0.45185
0.449849
0.447581
0.445138
0.442594
0.440011
0.437436
0.434902
0.432434
0.430049
0.427757
0.425566
0.423479
0.421496
0.419618
0.417842
0.416167
0.414589
0.413105
0.411711
0.410405
0.409184
0.408043
0.40698
0.405993
0.405077
0.404232
0.403453
0.402739
0.402087
0.401496
0.400966
0.400498
0.400095
0.399758
0.399494
0.399306
0.399203
0.39919
0.399276
0.399469
0.399782
0.400225
0.400811
0.401553
0.402461
0.403547
0.404823
0.406298
0.407981
0.409878
0.411996
0.414339
0.41691
0.419707
0.422725
0.425953
0.429372
0.43295
0.436646
0.440403
0.444151
0.4478
0.45123
0.454295
0.456872
0.458862
0.460186
0.460813
0.460762
0.460138
0.459237
0.458461
0.458133
0.458339
0.458962
0.45519
0.45427
0.4531
0.451608
0.449822
0.447806
0.445617
0.443313
0.440939
0.438536
0.436136
0.433768
0.43145
0.4292
0.427027
0.424941
0.422945
0.421042
0.419233
0.417517
0.415894
0.414361
0.412915
0.411555
0.410277
0.409079
0.407959
0.406914
0.405941
0.405038
0.404202
0.40343
0.402719
0.402065
0.401468
0.400927
0.400442
0.400015
0.39965
0.399349
0.399119
0.398966
0.398895
0.398916
0.399037
0.399269
0.399623
0.400112
0.400748
0.401544
0.40251
0.403658
0.404995
0.406529
0.408266
0.410209
0.412364
0.414732
0.417313
0.420104
0.423097
0.426276
0.429618
0.43309
0.436646
0.440228
0.443767
0.447176
0.450341
0.453144
0.45549
0.457315
0.458569
0.459228
0.459337
0.459068
0.458678
0.458384
0.45835
0.458627
0.453287
0.452184
0.450911
0.449375
0.447594
0.445633
0.443545
0.441372
0.439146
0.436899
0.434654
0.432434
0.430257
0.428136
0.426082
0.424103
0.422203
0.420386
0.418653
0.417006
0.415442
0.413961
0.412561
0.411241
0.409998
0.408831
0.407736
0.406713
0.40576
0.404874
0.404053
0.403293
0.402589
0.401937
0.401336
0.400785
0.400284
0.399833
0.399437
0.3991
0.398825
0.398619
0.398489
0.398442
0.398486
0.398632
0.398891
0.399278
0.399808
0.400491
0.401337
0.402356
0.403558
0.404946
0.406524
0.408294
0.410259
0.412423
0.414785
0.417345
0.420096
0.423028
0.426124
0.429358
0.432696
0.436092
0.439491
0.442826
0.446017
0.448988
0.451674
0.454011
0.455934
0.457384
0.45833
0.458828
0.459018
0.458991
0.458841
0.458752
0.450846
0.44963
0.448366
0.446877
0.44517
0.443309
0.441341
0.4393
0.437217
0.435115
0.433016
0.430938
0.428896
0.426903
0.424967
0.423096
0.421296
0.41957
0.417918
0.416344
0.414845
0.413423
0.412074
0.410799
0.409595
0.408462
0.407398
0.406401
0.405471
0.404606
0.403805
0.403064
0.402375
0.401729
0.401128
0.40057
0.400051
0.399573
0.399141
0.398761
0.398437
0.398174
0.397978
0.397856
0.397816
0.397869
0.398026
0.398308
0.398734
0.399307
0.400032
0.400929
0.402001
0.403248
0.404671
0.406272
0.408051
0.410013
0.412159
0.414489
0.417001
0.419689
0.422541
0.425539
0.428658
0.431866
0.435124
0.438384
0.441592
0.444695
0.44764
0.450377
0.452852
0.455
0.456755
0.458081
0.458999
0.459425
0.459225
0.458844
0.447974
0.446784
0.445607
0.44421
0.442614
0.440878
0.439043
0.437142
0.4352
0.433241
0.431283
0.429343
0.427432
0.425563
0.423745
0.421983
0.420283
0.418648
0.41708
0.415581
0.41415
0.412788
0.411494
0.410266
0.409104
0.408007
0.406974
0.406006
0.405101
0.404262
0.403492
0.402784
0.402115
0.401467
0.400843
0.400254
0.399705
0.399196
0.398731
0.398313
0.397947
0.397637
0.397388
0.397206
0.397097
0.397071
0.397139
0.397312
0.397607
0.398042
0.398641
0.399429
0.400395
0.401521
0.402805
0.404248
0.405853
0.407624
0.409566
0.41168
0.413968
0.416426
0.419048
0.421822
0.424733
0.427758
0.43087
0.434036
0.437221
0.440387
0.443497
0.446515
0.449399
0.452095
0.454521
0.456595
0.458257
0.459227
0.459049
0.458502
0.444873
0.443796
0.442748
0.441471
0.440009
0.438411
0.436717
0.434957
0.433158
0.431339
0.429519
0.427711
0.425929
0.424181
0.422477
0.420821
0.41922
0.417676
0.416191
0.414767
0.413404
0.412102
0.410862
0.409681
0.40856
0.407499
0.406498
0.405556
0.404676
0.403864
0.403126
0.402431
0.401748
0.401078
0.400428
0.39981
0.399234
0.398703
0.398215
0.397773
0.397381
0.397041
0.396758
0.396537
0.396383
0.396303
0.396306
0.396396
0.396582
0.396891
0.397352
0.397987
0.398819
0.399839
0.401007
0.402309
0.403755
0.405352
0.407108
0.409025
0.411109
0.413359
0.415773
0.418345
0.421065
0.42392
0.42689
0.429955
0.433089
0.436267
0.43946
0.442641
0.44578
0.448833
0.451723
0.454356
0.456632
0.458186
0.458285
0.45767
0.441766
0.440817
0.439896
0.438746
0.437426
0.435972
0.434422
0.432806
0.431149
0.429469
0.427783
0.426105
0.424447
0.422816
0.421222
0.41967
0.418163
0.416707
0.415302
0.41395
0.412653
0.411409
0.410219
0.409084
0.408002
0.406973
0.405998
0.405077
0.404215
0.403417
0.402682
0.40197
0.401264
0.40058
0.399928
0.39931
0.398729
0.398187
0.397685
0.397227
0.396815
0.396453
0.396143
0.39589
0.395698
0.395574
0.395525
0.395559
0.395688
0.395927
0.396285
0.396771
0.397436
0.398318
0.399366
0.400533
0.40183
0.403269
0.404857
0.406601
0.408505
0.410572
0.412803
0.415197
0.417747
0.420446
0.423283
0.426241
0.429304
0.432452
0.435662
0.43891
0.442171
0.445408
0.448555
0.45152
0.454199
0.456273
0.45689
0.456284
0.438765
0.437935
0.437127
0.436104
0.434925
0.433618
0.432216
0.430746
0.429231
0.427689
0.426135
0.424583
0.423044
0.421525
0.420036
0.41858
0.417164
0.415789
0.414459
0.413175
0.411938
0.410748
0.409606
0.408511
0.407463
0.406462
0.405509
0.404602
0.403745
0.402943
0.40219
0.40147
0.400772
0.400097
0.399448
0.39883
0.398246
0.397698
0.397189
0.396719
0.396293
0.395913
0.395582
0.395304
0.395082
0.394922
0.394829
0.394813
0.394887
0.395064
0.395355
0.395768
0.39632
0.397049
0.397945
0.398972
0.400128
0.401423
0.402864
0.404456
0.406205
0.408116
0.410192
0.412432
0.414835
0.417397
0.42011
0.422963
0.425942
0.42903
0.432207
0.435448
0.438728
0.44201
0.445239
0.448328
0.451185
0.45359
0.45472
0.454245
0.435903
0.435184
0.434485
0.433592
0.43256
0.431405
0.430155
0.428833
0.427461
0.426055
0.42463
0.423199
0.421773
0.42036
0.418967
0.417602
0.416267
0.414968
0.413706
0.412482
0.411299
0.410157
0.409056
0.407997
0.406978
0.406
0.405063
0.404167
0.403309
0.402493
0.401731
0.401017
0.400331
0.399662
0.399017
0.398399
0.397813
0.397262
0.396747
0.396269
0.395833
0.39544
0.395092
0.394794
0.394549
0.394359
0.394232
0.394175
0.3942
0.394323
0.394557
0.394912
0.395398
0.396012
0.396758
0.397645
0.398672
0.39984
0.401154
0.402619
0.40424
0.406023
0.40797
0.410084
0.412365
0.41481
0.417415
0.42017
0.423062
0.426075
0.429186
0.432368
0.43559
0.438813
0.441982
0.445016
0.447839
0.450312
0.451752
0.451463
0.433176
0.43257
0.431989
0.431241
0.430369
0.429378
0.428288
0.42712
0.425892
0.424621
0.42332
0.422004
0.420682
0.419366
0.418061
0.416776
0.415514
0.41428
0.413076
0.411905
0.410768
0.409667
0.4086
0.40757
0.406575
0.405616
0.404692
0.403803
0.402947
0.402123
0.401352
0.400639
0.399959
0.399295
0.398652
0.398035
0.397448
0.396894
0.396374
0.39589
0.395445
0.395042
0.394682
0.394368
0.394104
0.393892
0.393736
0.393646
0.393633
0.393712
0.393899
0.394206
0.394634
0.395152
0.395774
0.396545
0.397464
0.398528
0.399739
0.401103
0.402623
0.404306
0.406154
0.40817
0.410357
0.412711
0.415228
0.417901
0.420715
0.423652
0.426685
0.429782
0.432902
0.435995
0.438999
0.441832
0.444416
0.446659
0.448058
0.447852
0.430552
0.43007
0.429635
0.429066
0.428384
0.427579
0.426665
0.425658
0.424576
0.423435
0.422253
0.421042
0.419815
0.418583
0.417355
0.416137
0.414936
0.413756
0.4126
0.411471
0.410371
0.4093
0.408261
0.407252
0.406276
0.40533
0.404416
0.403534
0.402681
0.401857
0.401074
0.400351
0.399671
0.39901
0.398367
0.39775
0.397161
0.396603
0.396079
0.39559
0.395138
0.394726
0.394355
0.394029
0.39375
0.39352
0.393343
0.393227
0.393183
0.393229
0.393382
0.393652
0.394011
0.394435
0.39497
0.395659
0.396499
0.397485
0.398621
0.399911
0.401359
0.402971
0.40475
0.4067
0.408821
0.411114
0.413573
0.416189
0.418947
0.421825
0.424793
0.427808
0.430818
0.433761
0.436562
0.439126
0.441347
0.443151
0.444247
0.443836
0.427943
0.427625
0.427397
0.427071
0.426631
0.426049
0.425331
0.424495
0.423559
0.422545
0.421471
0.420353
0.419207
0.418045
0.416878
0.415713
0.414558
0.413418
0.412297
0.411198
0.410124
0.409075
0.408053
0.407059
0.406093
0.405156
0.404248
0.403369
0.402519
0.401696
0.400906
0.400168
0.399479
0.398816
0.398172
0.397552
0.39696
0.396398
0.395869
0.395374
0.394915
0.394495
0.394115
0.393779
0.393489
0.393245
0.393052
0.392915
0.392847
0.392869
0.393
0.393225
0.393503
0.393857
0.394346
0.394986
0.395774
0.396709
0.397796
0.399039
0.400443
0.402014
0.403756
0.405671
0.407762
0.410028
0.412463
0.415058
0.417796
0.420651
0.423587
0.426554
0.429486
0.432309
0.434938
0.437264
0.439147
0.440606
0.441586
0.440719
0.425168
0.425099
0.425211
0.425251
0.425141
0.424834
0.42434
0.423684
0.422892
0.421993
0.421012
0.419971
0.418887
0.417776
0.416652
0.415523
0.414398
0.413282
0.412182
0.4111
0.410038
0.409
0.407986
0.406998
0.406036
0.4051
0.404193
0.403313
0.402461
0.401638
0.400843
0.400091
0.399387
0.398716
0.398068
0.397445
0.396848
0.39628
0.395745
0.395244
0.394778
0.39435
0.393963
0.393618
0.393317
0.393064
0.392858
0.392705
0.39262
0.392626
0.392731
0.392896
0.393114
0.393442
0.393911
0.394525
0.395285
0.396193
0.397257
0.39848
0.399868
0.401427
0.403162
0.405077
0.407174
0.409451
0.411904
0.414522
0.417288
0.420172
0.423131
0.426106
0.429014
0.431757
0.434226
0.436262
0.437719
0.439017
0.440326
0.43848
0.421839
0.422287
0.422999
0.423628
0.42398
0.424008
0.423758
0.423281
0.422622
0.421819
0.420909
0.41992
0.418875
0.417793
0.416689
0.415575
0.414461
0.413353
0.412257
0.411178
0.410117
0.409078
0.408062
0.40707
0.406104
0.405164
0.404251
0.403365
0.402508
0.40168
0.40088
0.400113
0.399389
0.398707
0.398054
0.397425
0.396822
0.396249
0.395707
0.395199
0.394726
0.394291
0.393896
0.393543
0.393235
0.392973
0.392759
0.392595
0.392498
0.392489
0.392553
0.392669
0.392871
0.3932
0.393666
0.394273
0.395026
0.395931
0.396994
0.398221
0.39962
0.401196
0.402955
0.404903
0.407041
0.40937
0.411887
0.414581
0.417435
0.420419
0.423484
0.426557
0.429535
0.432274
0.434566
0.436074
0.436586
0.437058
0.437183
0.43119
0.416896
0.418667
0.420716
0.422268
0.423235
0.423681
0.423685
0.423356
0.422794
0.422053
0.42118
0.420213
0.419177
0.418096
0.416987
0.415866
0.414743
0.413624
0.412517
0.411425
0.410353
0.409301
0.408273
0.407269
0.406292
0.405341
0.404418
0.403523
0.402657
0.401821
0.401007
0.400219
0.399477
0.398783
0.398122
0.397488
0.396879
0.396299
0.395751
0.395236
0.394757
0.394315
0.393914
0.393554
0.39324
0.392972
0.392752
0.392583
0.392474
0.392442
0.392473
0.392576
0.392791
0.393133
0.393609
0.394226
0.394991
0.395911
0.396995
0.398249
0.399681
0.401299
0.40311
0.405121
0.407336
0.409758
0.412385
0.415212
0.418225
0.421398
0.424689
0.428026
0.431297
0.434328
0.436803
0.438172
0.438117
0.437114
0.430462
0.410899
0.408685
0.414629
0.418872
0.421539
0.423141
0.423972
0.42421
0.423992
0.423454
0.422709
0.421828
0.420843
0.419782
0.418672
0.417533
0.416382
0.415228
0.414082
0.412948
0.411831
0.410734
0.40966
0.408611
0.407588
0.406592
0.405626
0.404689
0.403782
0.402904
0.40205
0.401211
0.400403
0.399647
0.398941
0.398271
0.397629
0.397015
0.39643
0.395876
0.395356
0.394871
0.394425
0.394018
0.393654
0.393335
0.393064
0.392842
0.392671
0.392553
0.392494
0.392514
0.392637
0.392875
0.39324
0.393738
0.39438
0.395173
0.396126
0.397248
0.398548
0.400034
0.401716
0.403603
0.405703
0.408024
0.410572
0.41335
0.416359
0.419594
0.423045
0.426689
0.430488
0.434382
0.438269
0.441914
0.444885
0.44725
0.448053
0.433926
0.396254
0.389887
0.409784
0.417636
0.421864
0.424064
0.425095
0.425393
0.425194
0.424623
0.4238
0.422832
0.421779
0.420654
0.419483
0.418286
0.417082
0.415881
0.414691
0.413518
0.412364
0.411234
0.410129
0.409051
0.408003
0.406987
0.406005
0.405055
0.404131
0.403225
0.402338
0.401477
0.400659
0.399892
0.399174
0.398494
0.397845
0.397226
0.396636
0.396079
0.395555
0.395068
0.394619
0.39421
0.393845
0.393526
0.393256
0.393037
0.39287
0.39275
0.392675
0.39269
0.392837
0.39311
0.393508
0.394042
0.394721
0.395556
0.396555
0.397729
0.399088
0.400643
0.402405
0.404383
0.40659
0.409035
0.411728
0.414677
0.417892
0.421377
0.425139
0.429184
0.433516
0.438163
0.443183
0.448543
0.454157
0.460602
0.467509
0.468325
0.469302
0.39943
0.413405
0.420176
0.424348
0.426377
0.427208
0.427309
0.42693
0.426218
0.425274
0.424179
0.422993
0.421749
0.420479
0.4192
0.417926
0.416664
0.41542
0.414198
0.413
0.41183
0.410688
0.409578
0.408503
0.407466
0.406467
0.405495
0.404537
0.403596
0.402686
0.401816
0.40099
0.400212
0.39948
0.39879
0.398135
0.397511
0.396919
0.39636
0.395836
0.395348
0.3949
0.394494
0.394132
0.393818
0.393554
0.393344
0.393189
0.393083
0.393018
0.393025
0.393172
0.393478
0.393923
0.394505
0.395233
0.39612
0.397176
0.398412
0.39984
0.401474
0.403324
0.405403
0.407725
0.410301
0.413145
0.41627
0.419688
0.423414
0.427465
0.431859
0.436622
0.441847
0.447692
0.45416
0.461086
0.46847
0.476302
0.484626
0.497994
0.417363
0.42312
0.426683
0.428888
0.429832
0.430031
0.429718
0.429045
0.428116
0.426999
0.425756
0.424427
0.423041