/*--------------------------------*- C++ -*----------------------------------*\
| =========                 |                                                 |
| \\      /  F ield         | OpenFOAM: The Open Source CFD Toolbox           |
|  \\    /   O peration     | Version:  v2012                                 |
|   \\  /    A nd           | Website:  www.openfoam.com                      |
|    \\/     M anipulation  |                                                 |
\*---------------------------------------------------------------------------*/
FoamFile
{
    version     2.0;
    format      ascii;
    class       surfaceScalarField;
    location    "604";
    object      phi;
}
// * * * * * * * * * * * * * * * * * * * * * * * * * * * * * * * * * * * * * //

dimensions      [0 3 -1 0 0 0 0];
oriented        oriented;


internalField   nonuniform List<scalar> 
12792
(
8.67541e-08
0.000199913
5.54876e-08
0.000200031
3.20684e-08
0.000200023
1.47925e-08
0.000200017
3.89301e-11
0.000200015
-1.47201e-08
0.000200015
-3.20118e-08
0.000200017
-5.54574e-08
0.000200023
-8.67435e-08
0.000200031
0.000199913
1.33823e-07
0.000199779
1.15778e-07
0.000200049
7.66009e-08
0.000200063
3.73855e-08
0.000200056
1.16741e-10
0.000200052
-3.71677e-08
0.000200052
-7.64312e-08
0.000200057
-1.15689e-07
0.000200063
-1.33799e-07
0.000200049
0.000199779
1.35176e-07
0.000199644
1.34058e-07
0.00020005
9.63331e-08
0.0002001
4.9171e-08
0.000200104
2.1851e-10
0.000200101
-4.87545e-08
0.000200101
-9.59685e-08
0.000200104
-1.33763e-07
0.0002001
-1.35011e-07
0.000200051
0.000199644
1.31508e-07
0.000199513
1.3615e-07
0.000200046
1.02056e-07
0.000200134
5.36385e-08
0.000200152
3.48038e-10
0.000200154
-5.29837e-08
0.000200154
-1.01522e-07
0.000200152
-1.3575e-07
0.000200135
-1.31282e-07
0.000200046
0.000199513
1.26694e-07
0.000199386
1.33309e-07
0.000200039
1.0183e-07
0.000200166
5.44016e-08
0.0002002
5.44872e-10
0.000200208
-5.33697e-08
0.000200208
-1.00956e-07
0.0002002
-1.32677e-07
0.000200166
-1.26338e-07
0.00020004
0.000199387
1.20483e-07
0.000199266
1.28133e-07
0.000200032
9.94086e-08
0.000200195
5.36357e-08
0.000200245
8.58188e-10
0.000200261
-5.19907e-08
0.000200261
-9.79722e-08
0.000200246
-1.27095e-07
0.000200196
-1.19924e-07
0.000200033
0.000199267
1.14294e-07
0.000199151
1.22372e-07
0.000200023
9.56869e-08
0.000200221
5.20781e-08
0.000200289
1.29661e-09
0.000200312
-4.96066e-08
0.000200312
-9.35739e-08
0.00020029
-1.20804e-07
0.000200223
-1.13441e-07
0.000200025
0.000199153
1.08697e-07
0.000199043
1.16597e-07
0.000200016
9.13715e-08
0.000200247
5.01978e-08
0.00020033
1.93926e-09
0.00020036
-4.65063e-08
0.00020036
-8.82218e-08
0.000200332
-1.14268e-07
0.000200249
-1.07418e-07
0.000200018
0.000199046
1.03903e-07
0.000198939
1.11482e-07
0.000200008
8.76473e-08
0.00020027
4.86853e-08
0.000200369
2.91272e-09
0.000200406
-4.31345e-08
0.000200407
-8.28965e-08
0.000200371
-1.07991e-07
0.000200274
-1.01986e-07
0.000200012
0.000198944
9.99795e-08
0.000198839
1.07344e-07
0.000200001
8.48328e-08
0.000200293
4.78818e-08
0.000200406
4.3702e-09
0.000200449
-3.95531e-08
0.00020045
-7.77057e-08
0.000200409
-1.02105e-07
0.000200298
-9.71006e-08
0.000200007
0.000198847
9.69449e-08
0.000198742
1.04344e-07
0.000199993
8.31224e-08
0.000200314
4.80311e-08
0.000200441
6.54456e-09
0.000200491
-3.55594e-08
0.000200493
-7.24459e-08
0.000200446
-9.64786e-08
0.000200322
-9.26195e-08
0.000200004
0.000198754
9.48374e-08
0.000198647
1.02647e-07
0.000199985
8.27801e-08
0.000200334
4.94645e-08
0.000200474
9.7922e-09
0.00020053
-3.08058e-08
0.000200533
-6.67986e-08
0.000200482
-9.08348e-08
0.000200346
-8.83389e-08
0.000200001
0.000198666
9.37861e-08
0.000198553
1.02548e-07
0.000199977
8.42081e-08
0.000200352
5.26737e-08
0.000200506
1.46493e-08
0.000200568
-2.47659e-08
0.000200573
-6.02912e-08
0.000200518
-8.47853e-08
0.000200371
-8.40122e-08
0.0002
0.000198582
9.3984e-08
0.000198459
1.04415e-07
0.000199966
8.80422e-08
0.000200369
5.84308e-08
0.000200536
2.19384e-08
0.000200605
-1.66508e-08
0.000200611
-5.22466e-08
0.000200553
-7.78222e-08
0.000200396
-7.93482e-08
0.000200002
0.000198503
9.55789e-08
0.000198364
1.08532e-07
0.000199953
9.49871e-08
0.000200382
6.78287e-08
0.000200563
3.28803e-08
0.00020064
-5.30239e-09
0.000200649
-4.17138e-08
0.00020059
-6.92923e-08
0.000200424
-7.40215e-08
0.000200007
0.000198429
9.92476e-08
0.000198264
1.16319e-07
0.000199936
1.06704e-07
0.000200392
8.26345e-08
0.000200587
4.93542e-08
0.000200673
1.10151e-08
0.000200688
-2.73325e-08
0.000200628
-5.8403e-08
0.000200455
-6.7752e-08
0.000200016
0.000198361
1.05727e-07
0.000198159
1.29064e-07
0.000199913
1.24943e-07
0.000200396
1.04919e-07
0.000200607
7.37008e-08
0.000200704
3.55019e-08
0.000200726
-6.48945e-09
0.00020067
-4.39055e-08
0.000200493
-6.06206e-08
0.000200033
0.0001983
1.16047e-07
0.000198043
1.48802e-07
0.00019988
1.52956e-07
0.000200392
1.39116e-07
0.000200621
1.11374e-07
0.000200732
7.17542e-08
0.000200765
2.32977e-08
0.000200719
-2.6488e-08
0.000200542
-5.53407e-08
0.000200061
0.000198245
1.31518e-07
0.000197911
1.78103e-07
0.000199833
1.94645e-07
0.000200375
1.91052e-07
0.000200624
1.69741e-07
0.000200753
1.29612e-07
0.000200806
7.32987e-08
0.000200775
8.13518e-09
0.000200607
-4.7016e-08
0.000200117
0.000198198
1.53706e-07
0.000197757
2.20101e-07
0.000199767
2.55003e-07
0.00020034
2.67368e-07
0.000200612
2.57164e-07
0.000200764
2.20348e-07
0.000200842
1.44441e-07
0.000200851
2.18268e-08
0.00020073
-1.57335e-07
0.000200296
0.000198041
1.88182e-07
0.000197569
2.85205e-07
0.00019967
3.49133e-07
0.000200276
3.89507e-07
0.000200571
4.07226e-07
0.000200746
4.02611e-07
0.000200847
3.74654e-07
0.000200879
3.27296e-07
0.000200777
5.82867e-07
0.00020004
0.000193717
4.90688e-06
2.29166e-07
0.00019734
3.6523e-07
0.000199534
4.68053e-07
0.000200174
5.48225e-07
0.000200491
6.08355e-07
0.000200686
6.53533e-07
0.000200802
7.06908e-07
0.000200825
8.21041e-07
0.000200663
1.09577e-06
0.000199766
0.00019169
3.12225e-06
2.80061e-07
0.00019706
4.64586e-07
0.000199349
6.15521e-07
0.000200023
7.44375e-07
0.000200362
8.54659e-07
0.000200575
9.50516e-07
0.000200706
1.0514e-06
0.000200725
1.24851e-06
0.000200466
1.85988e-06
0.000199154
0.00018858
4.97018e-06
3.40981e-07
0.000196719
5.83404e-07
0.000199107
7.91246e-07
0.000199815
9.7673e-07
0.000200177
1.14477e-06
0.000200407
1.30416e-06
0.000200547
1.48566e-06
0.000200543
1.81302e-06
0.000200139
2.72614e-06
0.000198241
0.000185067
6.23894e-06
4.12752e-07
0.000196306
7.23196e-07
0.000198797
9.97553e-07
0.00019954
1.24878e-06
0.000199926
1.48338e-06
0.000200173
1.71479e-06
0.000200315
1.98311e-06
0.000200275
2.42657e-06
0.000199695
3.52808e-06
0.00019714
0.000181549
7.04591e-06
4.96792e-07
0.000195809
8.86479e-07
0.000198407
1.23788e-06
0.000199189
1.56446e-06
0.000199599
1.87371e-06
0.000199864
2.18225e-06
0.000200007
2.53884e-06
0.000199918
3.10414e-06
0.00019913
4.43594e-06
0.000195808
0.000178123
7.86182e-06
5.95023e-07
0.000195214
1.07684e-06
0.000197925
1.51741e-06
0.000198749
1.93064e-06
0.000199186
2.32486e-06
0.000199469
2.71988e-06
0.000199612
3.17228e-06
0.000199466
3.85474e-06
0.000198448
5.34617e-06
0.000194316
0.000174966
8.50362e-06
7.09995e-07
0.000194504
1.29925e-06
0.000197336
1.84369e-06
0.000198204
2.35777e-06
0.000198672
2.85062e-06
0.000198977
3.34499e-06
0.000199117
3.90418e-06
0.000198907
4.70345e-06
0.000197648
6.29682e-06
0.000192723
0.000172084
9.17832e-06
8.44875e-07
0.000193659
1.5598e-06
0.000196621
2.226e-06
0.000197538
2.85879e-06
0.000198039
3.46833e-06
0.000198367
4.08094e-06
0.000198505
4.76971e-06
0.000198218
5.72415e-06
0.000196694
7.44077e-06
0.000191006
0.000169506
1.00193e-05
1.00296e-06
0.000192657
1.86505e-06
0.000195759
2.67438e-06
0.000196729
3.44677e-06
0.000197267
4.1938e-06
0.00019762
4.94474e-06
0.000197754
5.77885e-06
0.000197384
6.89217e-06
0.000195581
8.71521e-06
0.000189183
0.000167257
1.09641e-05
1.19094e-06
0.000191466
2.22222e-06
0.000194728
3.19901e-06
0.000195752
4.13443e-06
0.000196331
5.04091e-06
0.000196713
5.949e-06
0.000196846
6.93806e-06
0.000196395
8.19484e-06
0.000194324
1.00704e-05
0.000187308
0.000165377
1.19507e-05
1.40862e-06
0.000190057
2.64171e-06
0.000193494
3.81239e-06
0.000194581
4.93745e-06
0.000195206
6.0283e-06
0.000195623
7.11513e-06
0.000195759
8.27414e-06
0.000195236
9.67113e-06
0.000192927
1.15645e-05
0.000185414
0.00016387
1.3071e-05
1.65899e-06
0.000188398
3.13287e-06
0.000192021
4.52989e-06
0.000193184
5.87566e-06
0.00019386
7.18079e-06
0.000194317
8.47336e-06
0.000194466
9.82333e-06
0.000193886
1.137e-05
0.00019138
1.32575e-05
0.000183527
0.00016271
1.4418e-05
1.95317e-06
0.000186445
3.70328e-06
0.00019027
5.36593e-06
0.000191521
6.96989e-06
0.000192256
8.52562e-06
0.000192762
1.00574e-05
0.000192934
1.16236e-05
0.000192319
1.33284e-05
0.000189675
1.51843e-05
0.000181671
0.000161843
1.6051e-05
2.29478e-06
0.00018415
4.36381e-06
0.000188201
6.3356e-06
0.00018955
8.24122e-06
0.000190351
1.00905e-05
0.000190912
1.19027e-05
0.000191122
1.37202e-05
0.000190502
1.56045e-05
0.000187791
1.74341e-05
0.000179841
0.000161209
1.80677e-05
2.68729e-06
0.000181463
5.1245e-06
0.000185764
7.45394e-06
0.00018722
9.71013e-06
0.000188095
1.19023e-05
0.00018872
1.40435e-05
0.000188981
1.61582e-05
0.000188387
1.82572e-05
0.000185692
2.01003e-05
0.000177998
0.00016073
2.05796e-05
3.13375e-06
0.000178329
5.99386e-06
0.000182904
8.73382e-06
0.00018448
1.13941e-05
0.000185434
1.39841e-05
0.00018613
1.65102e-05
0.000186455
1.89767e-05
0.000185921
2.13393e-05
0.000183329
2.32672e-05
0.00017607
0.000160303
2.36945e-05
3.63e-06
0.000174699
6.97592e-06
0.000179558
1.01838e-05
0.000181272
1.33054e-05
0.000182313
1.63519e-05
0.000183084
1.93238e-05
0.000183483
2.22048e-05
0.00018304
2.48989e-05
0.000180635
2.70068e-05
0.000173963
0.0001598
2.75092e-05
4.01851e-06
0.00017068
7.7345e-06
0.000175842
1.13069e-05
0.0001777
1.47919e-05
0.000178828
1.82027e-05
0.000179673
2.15351e-05
0.000180151
2.47554e-05
0.000179819
2.77309e-05
0.00017766
3.00321e-05
0.000171661
0.000159107
3.07257e-05
4.60304e-06
0.000166077
8.85891e-06
0.000171586
1.29588e-05
0.0001736
1.6968e-05
0.000174818
2.0904e-05
0.000175737
2.47595e-05
0.000176295
2.84868e-05
0.000176092
3.19231e-05
0.000174224
3.46128e-05
0.000168972
0.000158053
3.56667e-05
5.23385e-06
0.000160844
1.0083e-05
0.000166737
1.47555e-05
0.000168928
1.93322e-05
0.000170242
2.38377e-05
0.000171232
2.82648e-05
0.000171868
3.25565e-05
0.0001718
3.65321e-05
0.000170248
3.97295e-05
0.000165774
0.000156476
4.13063e-05
5.90869e-06
0.000154935
1.13956e-05
0.00016125
1.66808e-05
0.000163642
2.18614e-05
0.000165061
2.69721e-05
0.000166121
3.20093e-05
0.000166831
3.69131e-05
0.000166897
4.14977e-05
0.000165663
4.5314e-05
0.000161958
0.000154216
4.75735e-05
6.62496e-06
0.00014831
1.27874e-05
0.000155088
1.87168e-05
0.000157713
2.45275e-05
0.000159251
3.02667e-05
0.000160382
3.59384e-05
0.000161159
4.14865e-05
0.000161349
4.67325e-05
0.000160417
5.12586e-05
0.000157432
0.000151133
5.43418e-05
7.38169e-06
0.000140928
1.42481e-05
0.000148221
2.08441e-05
0.000151117
2.72989e-05
0.000152796
3.36751e-05
0.000154005
3.99878e-05
0.000154846
4.61914e-05
0.000155145
5.2126e-05
0.000154483
5.74204e-05
0.000152137
0.000147123
6.14307e-05
8.17922e-06
0.000132749
1.57684e-05
0.000140632
2.30426e-05
0.000143843
3.01428e-05
0.000145696
3.71478e-05
0.000147
4.40881e-05
0.000147906
5.09342e-05
0.000148299
5.75533e-05
0.000147864
6.36322e-05
0.000146059
0.000142136
6.86192e-05
9.016e-06
0.000123733
1.73431e-05
0.000132305
2.52956e-05
0.00013589
3.30278e-05
0.000137963
4.06365e-05
0.000139392
4.81704e-05
0.000140372
5.56205e-05
0.000140849
6.28871e-05
0.000140597
6.97205e-05
0.000139225
0.000136187
7.56694e-05
9.89248e-06
0.000113841
1.89701e-05
0.000123227
2.759e-05
0.000127271
3.59267e-05
0.000129627
4.40972e-05
0.000131221
5.21712e-05
0.000132298
6.01635e-05
0.000132856
6.80099e-05
0.000132751
7.55243e-05
0.000131711
0.000129355
8.23566e-05
1.08149e-05
0.000103026
2.06521e-05
0.00011339
2.99168e-05
0.000118006
3.88155e-05
0.000120728
4.74902e-05
0.000122547
5.60345e-05
0.000123754
6.44882e-05
0.000124403
7.28227e-05
0.000124416
8.09109e-05
0.000123622
0.000121769
8.84965e-05
1.17959e-05
9.12297e-05
2.23961e-05
0.00010279
3.22682e-05
0.000108134
4.16703e-05
0.000111326
5.07771e-05
0.00011344
5.97086e-05
0.000114822
6.85308e-05
0.00011558
7.72478e-05
0.000115699
8.57838e-05
0.000115086
0.00011359
9.39626e-05
1.28702e-05
7.83596e-05
2.42075e-05
9.14527e-05
3.46271e-05
9.77141e-05
4.44563e-05
0.000101497
5.39101e-05
0.000103986
6.31377e-05
0.000105595
7.22311e-05
0.000106487
8.12229e-05
0.000106707
9.00787e-05
0.000106231
0.000104983
9.86858e-05
1.40926e-05
6.4267e-05
2.60829e-05
7.94625e-05
3.69531e-05
8.68439e-05
4.71123e-05
9.13374e-05
5.68164e-05
9.42818e-05
6.6246e-05
9.61653e-05
7.55172e-05
9.72158e-05
8.46858e-05
9.75389e-05
9.3748e-05
9.71684e-05
9.60942e-05
0.000102637
1.54712e-05
4.87957e-05
2.79662e-05
6.69675e-05
3.91441e-05
7.5666e-05
4.95145e-05
8.0967e-05
5.93682e-05
8.4428e-05
6.89126e-05
8.66209e-05
7.8283e-05
8.78454e-05
8.7552e-05
8.82699e-05
9.67356e-05
8.79847e-05
8.70328e-05
0.000105797
1.65031e-05
3.22926e-05
2.96856e-05
5.37851e-05
4.10501e-05
6.43015e-05
5.14706e-05
7.05465e-05
6.13589e-05
7.45397e-05
7.09423e-05
7.70375e-05
8.03589e-05
7.84288e-05
8.96848e-05
7.8944e-05
9.89447e-05
7.87247e-05
7.78596e-05
0.000108118
1.56471e-05
1.66455e-05
3.01446e-05
3.92876e-05
4.20858e-05
5.23603e-05
5.26146e-05
6.00177e-05
6.24832e-05
6.46711e-05
7.20527e-05
6.7468e-05
8.14896e-05
6.89919e-05
9.08674e-05
6.95662e-05
0.000100206
6.93858e-05
6.85783e-05
0.000109488
1.20608e-05
4.58479e-06
2.73598e-05
2.39885e-05
4.05975e-05
3.91226e-05
5.18741e-05
4.87411e-05
6.20574e-05
5.44878e-05
7.17556e-05
5.77698e-05
8.12833e-05
5.94643e-05
9.07713e-05
6.00782e-05
0.000100251
5.99066e-05
5.91312e-05
0.000109698
7.56831e-06
-2.98352e-06
2.1224e-05
1.03329e-05
3.51138e-05
2.52328e-05
4.75846e-05
3.62703e-05
5.87323e-05
4.33401e-05
6.90637e-05
4.74384e-05
7.90149e-05
4.95131e-05
8.88367e-05
5.02564e-05
9.86227e-05
5.01206e-05
4.93805e-05
0.000108373
4.58339e-06
-7.56691e-06
1.39027e-05
1.01358e-06
2.61362e-05
1.29992e-05
3.88395e-05
2.35671e-05
5.09962e-05
3.11833e-05
6.24485e-05
3.59861e-05
7.33816e-05
3.85801e-05
8.4007e-05
3.9631e-05
9.44564e-05
3.96711e-05
3.90413e-05
0.000104796
2.00002e-06
-9.56692e-06
6.86645e-06
-3.85285e-06
1.53616e-05
4.50413e-06
2.62168e-05
1.27118e-05
3.81983e-05
1.92019e-05
5.04922e-05
2.36922e-05
6.26981e-05
2.63741e-05
7.46609e-05
2.76682e-05
8.6328e-05
2.8004e-05
2.76238e-05
9.77455e-05
-2.32772e-06
-7.2392e-06
-1.47252e-06
-4.70804e-06
3.21053e-06
-1.78927e-07
1.11191e-05
4.80319e-06
2.1634e-05
8.68706e-06
3.3794e-05
1.15321e-05
4.68661e-05
1.33021e-05
6.01529e-05
1.43813e-05
7.32486e-05
1.49084e-05
1.47117e-05
8.61607e-05
-7.2392e-06
-1.19472e-05
-1.21262e-05
-7.32298e-06
1.36408e-06
1.28962e-05
2.61983e-05
4.05796e-05
5.5488e-05
7.01997e-05
-2.77645e-05
3.26714e-05
-2.70905e-05
-6.74018e-07
-2.39675e-05
-3.12304e-06
-2.00813e-05
-3.88619e-06
-1.56067e-05
-4.47456e-06
-1.07713e-05
-4.83539e-06
-5.81642e-06
-4.95491e-06
-9.44901e-07
-4.87152e-06
3.80221e-06
-4.74711e-06
8.40031e-06
-4.5981e-06
1.27498e-05
-4.34952e-06
1.66902e-05
-3.94033e-06
2.00133e-05
-3.32315e-06
2.26368e-05
-2.62348e-06
2.45157e-05
-1.87894e-06
2.56181e-05
-1.10239e-06
2.58965e-05
-2.78389e-07
2.52552e-05
6.41318e-07
2.36198e-05
1.63544e-06
2.0932e-05
2.68777e-06
1.71753e-05
3.75668e-06
1.24517e-05
4.72365e-06
7.24193e-06
5.20972e-06
2.59234e-06
4.64961e-06
2.59234e-06
-1.35848e-05
4.93785e-05
-1.91622e-05
4.90339e-06
-1.91215e-05
-3.16369e-06
-1.725e-05
-5.75775e-06
-1.44155e-05
-7.30908e-06
-1.09421e-05
-8.30879e-06
-7.03668e-06
-8.8603e-06
-2.86409e-06
-9.04411e-06
1.32087e-06
-8.93207e-06
5.28181e-06
-8.55904e-06
8.88554e-06
-7.95325e-06
1.2064e-05
-7.11877e-06
1.48037e-05
-6.06282e-06
1.70374e-05
-4.85722e-06
1.87132e-05
-3.55476e-06
1.97941e-05
-2.18326e-06
2.02643e-05
-7.48654e-07
2.01446e-05
7.61055e-07
1.9422e-05
2.35804e-06
1.80618e-05
4.04799e-06
1.60091e-05
5.80936e-06
1.3191e-05
7.54177e-06
9.48158e-06
8.91914e-06
4.9541e-06
9.17709e-06
7.54644e-06
-8.23181e-06
6.25805e-05
-1.49333e-05
1.16049e-05
-1.65818e-05
-1.51521e-06
-1.58922e-05
-6.44736e-06
-1.39494e-05
-9.25192e-06
-1.12199e-05
-1.10383e-05
-7.98793e-06
-1.20922e-05
-4.48143e-06
-1.25506e-05
-9.08762e-07
-1.25047e-05
2.55128e-06
-1.20191e-05
5.75247e-06
-1.11544e-05
8.59707e-06
-9.96337e-06
1.10334e-05
-8.49913e-06
1.30096e-05
-6.83342e-06
1.44865e-05
-5.03164e-06
1.54434e-05
-3.1402e-06
1.58793e-05
-1.18459e-06
1.58112e-05
8.29181e-07
1.52602e-05
2.90906e-06
1.42432e-05
5.06502e-06
1.27611e-05
7.29145e-06
1.07761e-05
9.52677e-06
8.1553e-06
1.15399e-05
4.65251e-06
1.26799e-05
1.21989e-05
-5.93956e-06
7.4759e-05
-1.36756e-05
1.93409e-05
-1.62486e-05
1.05781e-06
-1.61611e-05
-6.53486e-06
-1.46578e-05
-1.07552e-05
-1.23299e-05
-1.33662e-05
-9.49306e-06
-1.49291e-05
-6.37555e-06
-1.56681e-05
-3.16277e-06
-1.57175e-05
-1.04178e-08
-1.51714e-05
2.94425e-06
-1.41091e-05
5.59073e-06
-1.26098e-05
7.8517e-06
-1.07601e-05
9.67237e-06
-8.65409e-06
1.10222e-05
-6.38152e-06
1.18953e-05
-4.01323e-06
1.2305e-05
-1.59433e-06
1.22782e-05
8.55992e-07
1.18471e-05
3.34014e-06
1.10416e-05
5.87058e-06
9.88184e-06
8.45118e-06
8.36383e-06
1.10448e-05
6.41701e-06
1.34868e-05
3.79807e-06
1.52988e-05
1.5997e-05
-3.31649e-06
8.51214e-05
-1.24814e-05
2.85059e-05
-1.62702e-05
4.84655e-06
-1.69027e-05
-5.90236e-06
-1.58572e-05
-1.18006e-05
-1.38825e-05
-1.53409e-05
-1.13669e-05
-1.74446e-05
-8.54715e-06
-1.84879e-05
-5.59374e-06
-1.86709e-05
-2.65336e-06
-1.81118e-05
1.40926e-07
-1.69034e-05
2.67059e-06
-1.51395e-05
4.84098e-06
-1.29305e-05
6.58867e-06
-1.04018e-05
7.88476e-06
-7.67761e-06
8.73298e-06
-4.86144e-06
9.16014e-06
-2.0215e-06
9.20467e-06
8.11464e-07
8.90722e-06
3.63758e-06
8.30422e-06
6.47358e-06
7.4222e-06
9.3332e-06
6.26835e-06
1.21986e-05
4.79777e-06
1.49573e-05
2.79709e-06
1.72995e-05
1.87941e-05
-4.54057e-07
9.34372e-05
-1.00958e-05
3.81476e-05
-1.52845e-05
1.00352e-05
-1.70085e-05
-4.17836e-06
-1.67246e-05
-1.20845e-05
-1.53003e-05
-1.67652e-05
-1.32284e-05
-1.95165e-05
-1.0775e-05
-2.09413e-05
-8.11133e-06
-2.13346e-05
-5.3826e-06
-2.08405e-05
-2.726e-06
-1.956e-05
-2.71735e-07
-1.75938e-05
1.86678e-06
-1.5069e-05
3.60867e-06
-1.21437e-05
4.91714e-06
-8.98607e-06
5.79853e-06
-5.74283e-06
6.28919e-06
-2.51215e-06
6.43847e-06
6.62185e-07
6.29566e-06
3.78039e-06
5.90247e-06
6.86677e-06
5.28864e-06
9.94703e-06
4.46538e-06
1.30219e-05
3.40292e-06
1.60198e-05
1.95822e-06
1.87442e-05
2.07523e-05
1.97964e-06
9.99612e-05
-6.99133e-06
4.71186e-05
-1.3128e-05
1.61719e-05
-1.60677e-05
-1.23864e-06
-1.68288e-05
-1.13234e-05
-1.62415e-05
-1.73525e-05
-1.48288e-05
-2.09292e-05
-1.28842e-05
-2.28859e-05
-1.06075e-05
-2.36113e-05
-8.15029e-06
-2.32977e-05
-5.65474e-06
-2.20555e-05
-3.26656e-06
-1.99819e-05
-1.12277e-06
-1.72128e-05
6.69319e-07
-1.39357e-05
2.05213e-06
-1.03689e-05
3.0238e-06
-6.71451e-06
3.62441e-06
-3.11277e-06
3.91256e-06
3.74038e-07
3.94636e-06
3.74659e-06
3.7737e-06
7.03944e-06
3.42851e-06
1.02922e-05
2.92657e-06
1.35238e-05
2.24979e-06
1.66966e-05
1.30549e-06
1.96885e-05
2.20578e-05
4.04467e-06
0.000105095
-3.97408e-06
5.51373e-05
-1.04732e-05
2.2671e-05
-1.44498e-05
2.73804e-06
-1.63138e-05
-9.45946e-06
-1.67105e-05
-1.69558e-05
-1.6101e-05
-2.15387e-05
-1.48017e-05
-2.41853e-05
-1.30308e-05
-2.53822e-05
-1.09372e-05
-2.53914e-05
-8.65778e-06
-2.4335e-05
-6.34833e-06
-2.22914e-05
-4.17405e-06
-1.93871e-05
-2.27942e-06
-1.58304e-05
-7.57753e-07
-1.18905e-05
3.65209e-07
-7.83747e-06
1.12381e-06
-3.87138e-06
1.58397e-06
-8.61157e-08
1.81443e-06
3.51612e-06
1.87126e-06
6.98261e-06
1.79366e-06
1.03698e-05
1.6021e-06
1.37154e-05
1.28694e-06
1.70117e-05
7.82475e-07
2.0193e-05
2.28403e-05
5.85678e-06
0.000109257
-1.29955e-06
6.22937e-05
-7.82316e-06
2.91946e-05
-1.25103e-05
7.4252e-06
-1.5351e-05
-6.61876e-06
-1.67259e-05
-1.55809e-05
-1.70128e-05
-2.12517e-05
-1.65012e-05
-2.46969e-05
-1.53698e-05
-2.65136e-05
-1.37569e-05
-2.70043e-05
-1.17754e-05
-2.63164e-05
-9.5804e-06
-2.44864e-05
-7.36068e-06
-2.16068e-05
-5.30835e-06
-1.78827e-05
-3.57255e-06
-1.36263e-05
-2.22477e-06
-9.18525e-06
-1.25227e-06
-4.84388e-06
-5.85572e-07
-7.52811e-07
-1.4082e-07
3.07137e-06
1.50969e-07
6.69082e-06
3.3637e-07
1.01844e-05
4.4005e-07
1.36117e-05
4.57713e-07
1.69941e-05
3.39999e-07
2.03107e-05
2.31803e-05
7.51318e-06
0.000112708
1.09126e-06
6.87156e-05
-5.32725e-06
3.56131e-05
-1.04972e-05
1.25952e-05
-1.41562e-05
-2.95982e-06
-1.6462e-05
-1.32751e-05
-1.76879e-05
-2.00259e-05
-1.8039e-05
-2.43458e-05
-1.76446e-05
-2.6908e-05
-1.66352e-05
-2.80138e-05
-1.50635e-05
-2.78881e-05
-1.30507e-05
-2.64992e-05
-1.07935e-05
-2.3864e-05
-8.53088e-06
-2.01453e-05
-6.48854e-06
-1.56687e-05
-4.8174e-06
-1.08564e-05
-3.55551e-06
-6.10576e-06
-2.638e-06
-1.67032e-06
-1.95857e-06
2.39194e-06
-1.42695e-06
6.1592e-06
-9.84185e-07
9.74165e-06
-6.00481e-07
1.3228e-05
-2.77866e-07
1.66715e-05
-5.94384e-08
2.00923e-05
2.31209e-05
9.03595e-06
0.000115623
3.23783e-06
7.45137e-05
-3.02286e-06
4.18738e-05
-8.5267e-06
1.8099e-05
-1.28693e-05
1.38281e-06
-1.60415e-05
-1.01029e-05
-1.81919e-05
-1.78755e-05
-1.94596e-05
-2.3078e-05
-1.99147e-05
-2.64529e-05
-1.95861e-05
-2.83424e-05
-1.85539e-05
-2.89203e-05
-1.68391e-05
-2.8214e-05
-1.46059e-05
-2.60972e-05
-1.21121e-05
-2.26391e-05
-9.66524e-06
-1.81156e-05
-7.53503e-06
-1.29866e-05
-5.86716e-06
-7.77363e-06
-4.62863e-06
-2.90885e-06
-3.68181e-06
1.44512e-06
-2.89964e-06
5.37703e-06
-2.201e-06
9.04301e-06
-1.54728e-06
1.25743e-05
-9.40183e-07
1.60644e-05
-4.23124e-07
1.95752e-05
2.26977e-05
1.05198e-05
0.000118174
5.21083e-06
7.98227e-05
-8.92849e-07
4.79775e-05
-6.63664e-06
2.38428e-05
-1.15415e-05
6.28763e-06
-1.54826e-05
-6.16179e-06
-1.85051e-05
-1.4853e-05
-2.06859e-05
-2.08972e-05
-2.20572e-05
-2.50816e-05
-2.25536e-05
-2.7846e-05
-2.21832e-05
-2.92907e-05
-2.09554e-05
-2.94418e-05
-1.89064e-05
-2.81462e-05
-1.62527e-05
-2.52928e-05
-1.33457e-05
-2.10226e-05
-1.05938e-05
-1.57385e-05
-8.33045e-06
-1.0037e-05
-6.63966e-06
-4.59964e-06
-5.3585e-06
1.6396e-07
-4.29765e-06
4.31618e-06
-3.33711e-06
8.08246e-06
-2.4193e-06
1.16565e-05
-1.54627e-06
1.51913e-05
-7.64405e-07
1.87933e-05
2.19333e-05
1.20797e-05
0.000120513
7.12317e-06
8.47792e-05
1.14641e-06
5.39542e-05
-4.78343e-06
2.97727e-05
-1.01512e-05
1.16554e-05
-1.47586e-05
-1.55439e-06
-1.85698e-05
-1.10418e-05
-2.16077e-05
-1.78593e-05
-2.38737e-05
-2.28155e-05
-2.53114e-05
-2.64082e-05
-2.5782e-05
-2.88201e-05
-2.52645e-05
-2.99594e-05
-2.36934e-05
-2.97173e-05
-2.11156e-05
-2.78705e-05
-1.78309e-05
-2.43074e-05
-1.43319e-05
-1.92374e-05
-1.11756e-05
-1.31933e-05
-8.75308e-06
-7.0222e-06
-6.98825e-06
-1.60088e-06
-5.59054e-06
2.91847e-06
-4.36122e-06
6.85314e-06
-3.19708e-06
1.04923e-05
-2.08234e-06
1.40766e-05
-1.05643e-06
1.77674e-05
2.08769e-05
1.38221e-05
0.000122741
9.1095e-06
8.94918e-05
3.22342e-06
5.98403e-05
-2.86028e-06
3.58564e-05
-8.60999e-06
1.74051e-05
-1.37805e-05
3.61612e-06
-1.82849e-05
-6.53747e-06
-2.21108e-05
-1.40334e-05
-2.52451e-05
-1.96812e-05
-2.76244e-05
-2.4029e-05
-2.91085e-05
-2.7336e-05
-2.95113e-05
-2.95565e-05
-2.87443e-05
-3.04844e-05
-2.66744e-05
-2.99404e-05
-2.33558e-05
-2.76259e-05
-1.91975e-05
-2.33958e-05
-1.48778e-05
-1.7513e-05
-1.1225e-05
-1.0675e-05
-8.63152e-06
-4.19434e-06
-6.76681e-06
1.05376e-06
-5.23736e-06
5.3237e-06
-3.84541e-06
9.10039e-06
-2.52585e-06
1.27571e-05
-1.29397e-06
1.65355e-05
1.95829e-05
1.58891e-05
0.00012492
1.13395e-05
9.40414e-05
5.51237e-06
6.56674e-05
-7.00892e-07
4.20696e-05
-6.76209e-06
2.34663e-05
-1.23951e-05
9.24908e-06
-1.74843e-05
-1.4482e-06
-2.19946e-05
-9.52313e-06
-2.59136e-05
-1.57621e-05
-2.91968e-05
-2.07458e-05
-3.17257e-05
-2.48072e-05
-3.32642e-05
-2.80179e-05
-3.35773e-05
-3.01714e-05
-3.25072e-05
-3.10104e-05
-2.98281e-05
-3.03051e-05
-2.5578e-05
-2.76458e-05
-2.03038e-05
-2.27872e-05
-1.49545e-05
-1.60243e-05
-1.07528e-05
-8.39603e-06
-7.98025e-06
-1.71883e-06
-6.00844e-06
3.35189e-06
-4.36336e-06
7.4553e-06
-2.85423e-06
1.12479e-05
-1.44343e-06
1.51247e-05
1.81395e-05
1.84352e-05
0.000127065
1.40017e-05
9.84748e-05
8.21425e-06
7.14549e-05
1.89652e-06
4.83874e-05
-4.41246e-06
2.97753e-05
-1.04144e-05
1.5251e-05
-1.59715e-05
4.10884e-06
-2.10385e-05
-4.45609e-06
-2.56092e-05
-1.11914e-05
-2.96657e-05
-1.66893e-05
-3.31338e-05
-2.13391e-05
-3.58481e-05
-2.53036e-05
-3.74981e-05
-2.85213e-05
-3.77972e-05
-3.07114e-05
-3.64844e-05
-3.16179e-05
-3.32124e-05
-3.09178e-05
-2.79775e-05
-2.80221e-05
-2.13617e-05
-2.26401e-05
-1.47513e-05
-1.50064e-05
-9.87279e-06
-6.59737e-06
-6.86668e-06
3.45785e-07
-4.78527e-06
5.37388e-06
-3.04787e-06
9.51054e-06
-1.44332e-06
1.35202e-05
1.66962e-05
2.16125e-05
0.000129146
1.72888e-05
0.000102799
1.15437e-05
7.72001e-05
5.15256e-06
5.47785e-05
-1.34605e-06
3.62739e-05
-7.63278e-06
2.15378e-05
-1.35485e-05
1.00245e-05
-1.9043e-05
1.03849e-06
-2.4117e-05
-6.11744e-06
-2.87806e-05
-1.20257e-05
-3.301e-05
-1.71097e-05
-3.67098e-05
-2.16038e-05
-3.96826e-05
-2.55485e-05
-4.15782e-05
-2.88158e-05
-4.20644e-05
-3.11317e-05
-4.07158e-05
-3.22664e-05
-3.70553e-05
-3.16826e-05
-3.09563e-05
-2.87391e-05
-2.28436e-05
-2.31191e-05
-1.46396e-05
-1.48013e-05
-8.70308e-06
-5.59075e-06
-5.26014e-06
1.93094e-06
-2.99862e-06
7.24901e-06
-1.13334e-06
1.16549e-05
1.55628e-05
2.55621e-05
0.000131094
2.13852e-05
0.000106975
1.57128e-05
8.28726e-05
9.28885e-06
6.12024e-05
2.6571e-06
4.29056e-05
-3.84073e-06
2.80356e-05
-1.00237e-05
1.62075e-05
-1.58285e-05
6.84334e-06
-2.12641e-05
-6.81896e-07
-2.63629e-05
-6.92687e-06
-3.11468e-05
-1.23258e-05
-3.55896e-05
-1.7161e-05
-3.9586e-05
-2.15521e-05
-4.29239e-05
-2.54779e-05
-4.52554e-05
-2.88001e-05
-4.62441e-05
-3.12777e-05
-4.53322e-05
-3.25945e-05
-4.17975e-05
-3.22738e-05
-3.52415e-05
-2.96751e-05
-2.57849e-05
-2.42579e-05
-1.55385e-05
-1.58371e-05
-7.5748e-06
-6.03276e-06
-2.72951e-06
2.40373e-06
4.68125e-08
8.87857e-06
1.56096e-05
2.90917e-05
0.000132728
2.52988e-05
0.000110768
1.99827e-05
8.81887e-05
1.38391e-05
6.73459e-05
7.40394e-06
4.93408e-05
1.02777e-06
3.44118e-05
-5.09085e-06
2.23261e-05
-1.0873e-05
1.26254e-05
-1.63242e-05
4.76933e-06
-2.14911e-05
-1.75993e-06
-2.64259e-05
-7.39105e-06
-3.11568e-05
-1.24302e-05
-3.56624e-05
-1.70465e-05
-3.9854e-05
-2.12863e-05
-4.35569e-05
-2.50973e-05
-4.64877e-05
-2.83469e-05
-4.82654e-05
-3.08168e-05
-4.82966e-05
-3.22426e-05
-4.58331e-05
-3.21386e-05
-4.01485e-05
-2.99425e-05
-3.08354e-05
-2.51502e-05
-1.91444e-05
-1.77238e-05
-7.99591e-06
-8.74473e-06
1.769e-06
-8.86322e-07
4.35339e-06
1.30252e-05
3.44021e-05
0.000133992
3.09411e-05
0.000114229
2.58501e-05
9.32796e-05
1.9809e-05
7.33871e-05
1.33731e-05
5.57768e-05
6.92135e-06
4.08635e-05
6.79612e-07
2.85678e-05
-5.24829e-06
1.85534e-05
-1.08518e-05
1.03728e-05
-1.6179e-05
3.56728e-06
-2.13015e-05
-2.2685e-06
-2.62835e-05
-7.4482e-06
-3.11589e-05
-1.21711e-05
-3.59187e-05
-1.65264e-05
-4.05055e-05
-2.05105e-05
-4.48024e-05
-2.405e-05
-4.85982e-05
-2.7021e-05
-5.15895e-05
-2.92513e-05
-5.32502e-05
-3.0478e-05
-5.2986e-05
-3.02067e-05
-5.01217e-05
-2.80145e-05
-4.41575e-05
-2.36879e-05
-3.53915e-05
-1.75108e-05
-2.67552e-05
-9.52257e-06
7.1094e-07
-2.31128e-05
4.05775e-05
0.000134721
3.76083e-05
0.000117198
3.28817e-05
9.80062e-05
2.70548e-05
7.92139e-05
2.07042e-05
6.21274e-05
1.42447e-05
4.7323e-05
7.93503e-06
3.48775e-05
1.90847e-06
2.45799e-05
-3.79971e-06
1.6081e-05
-9.22299e-06
8.99056e-06
-1.44362e-05
2.94474e-06
-1.9523e-05
-2.36144e-06
-2.45497e-05
-7.14446e-06
-2.95522e-05
-1.15239e-05
-3.45403e-05
-1.55223e-05
-3.95084e-05
-1.90819e-05
-4.44359e-05
-2.20935e-05
-4.9261e-05
-2.44262e-05
-5.38213e-05
-2.59177e-05
-5.77009e-05
-2.63271e-05
-6.04852e-05
-2.52302e-05
-6.21051e-05
-2.2068e-05
-6.31732e-05
-1.64427e-05
-6.419e-05
-8.50578e-06
1.15857e-06
-6.46376e-05
4.75633e-05
0.000134731
4.52829e-05
0.000119479
4.11074e-05
0.000102182
3.56524e-05
8.46689e-05
2.95098e-05
6.827e-05
2.31335e-05
5.36992e-05
1.68239e-05
4.11871e-05
1.07489e-05
3.06549e-05
4.9747e-06
2.18552e-05
-5.08167e-07
1.44734e-05
-5.75843e-06
8.195e-06
-1.08594e-05
2.7395e-06
-1.58885e-05
-2.1153e-06
-2.08964e-05
-6.51604e-06
-2.59071e-05
-1.05116e-05
-3.09384e-05
-1.40506e-05
-3.60205e-05
-1.70114e-05
-4.11925e-05
-1.92541e-05
-4.64805e-05
-2.06297e-05
-5.18477e-05
-2.096e-05
-5.70457e-05
-2.00321e-05
-6.14958e-05
-1.76179e-05
-6.44717e-05
-1.34668e-05
-6.54506e-05
-7.5269e-06
-2.19666e-07
-6.40723e-05
5.52315e-05
0.000133841
5.38602e-05
0.00012085
5.04677e-05
0.000105574
4.5596e-05
8.95406e-05
3.98343e-05
7.40317e-05
3.36732e-05
5.98604e-05
2.746e-05
4.74003e-05
2.1407e-05
3.67079e-05
1.56158e-05
2.76464e-05
1.01062e-05
1.99831e-05
4.84384e-06
1.34573e-05
-2.35975e-07
7.81932e-06
-5.20314e-06
2.85187e-06
-1.01043e-05
-1.61493e-06
-1.49465e-05
-5.66935e-06
-1.97241e-05
-9.273e-06
-2.44391e-05
-1.22964e-05
-2.90933e-05
-1.46e-05
-3.36926e-05
-1.60304e-05
-3.8207e-05
-1.64456e-05
-4.24671e-05
-1.5772e-05
-4.61196e-05
-1.39654e-05
-4.85703e-05
-1.10161e-05
-4.90496e-05
-7.04755e-06
-2.32163e-06
-4.69476e-05
6.33753e-05
0.000131897
6.31322e-05
0.000121093
6.07851e-05
0.000107921
5.6762e-05
9.35637e-05
5.16163e-05
7.91774e-05
4.58598e-05
6.56169e-05
3.98871e-05
5.3373e-05
3.39615e-05
4.26335e-05
2.82302e-05
3.33777e-05
2.27493e-05
2.5464e-05
1.75113e-05
1.86953e-05
1.24707e-05
1.286e-05
7.571e-06
7.75152e-06
2.77937e-06
3.17669e-06
-1.89234e-06
-9.97639e-07
-6.43541e-06
-4.72993e-06
-1.08467e-05
-7.88512e-06
-1.51069e-05
-1.03398e-05
-1.91494e-05
-1.19879e-05
-2.28451e-05
-1.27499e-05
-2.60154e-05
-1.26018e-05
-2.84305e-05
-1.15502e-05
-2.97973e-05
-9.64934e-06
-2.98057e-05
-7.0392e-06
-3.94945e-06
-2.81779e-05
7.17202e-05
0.000128796
7.27875e-05
0.000120026
7.17467e-05
0.000108962
6.88741e-05
9.64363e-05
6.46415e-05
8.341e-05
5.95504e-05
7.07079e-05
5.40294e-05
5.8894e-05
4.83938e-05
4.8269e-05
4.28447e-05
3.89268e-05
3.74857e-05
3.0823e-05
3.23461e-05
2.3835e-05
2.74048e-05
1.78013e-05
2.26175e-05
1.25388e-05
1.79645e-05
7.8297e-06
1.3446e-05
3.52092e-06
9.03493e-06