/*--------------------------------*- C++ -*----------------------------------*\
| =========                 |                                                 |
| \\      /  F ield         | OpenFOAM: The Open Source CFD Toolbox           |
|  \\    /   O peration     | Version:  v2012                                 |
|   \\  /    A nd           | Website:  www.openfoam.com                      |
|    \\/     M anipulation  |                                                 |
\*---------------------------------------------------------------------------*/
FoamFile
{
    version     2.0;
    format      ascii;
    class       volVectorField;
    location    "604";
    object      U;
}
// * * * * * * * * * * * * * * * * * * * * * * * * * * * * * * * * * * * * * //

dimensions      [0 1 -1 0 0 0 0];


internalField   nonuniform List<vector> 
6532
(
(0.00011369 -0.999622 0)
(0.000286782 -1.00005 0)
(0.000188166 -1.00004 0)
(9.4184e-05 -1.00002 0)
(2.88005e-05 -1.00002 0)
(-2.84954e-05 -1.00002 0)
(-9.39193e-05 -1.00002 0)
(-0.000187983 -1.00004 0)
(-0.000286728 -1.00005 0)
(-0.000113664 -0.999622 0)
(0.000429705 -0.999207 0)
(0.000530296 -1.00021 0)
(0.000388695 -1.0002 0)
(0.000226401 -1.00016 0)
(7.39104e-05 -1.00014 0)
(-7.29851e-05 -1.00014 0)
(-0.000225603 -1.00016 0)
(-0.000388103 -1.0002 0)
(-0.000530245 -1.00021 0)
(-0.00042956 -0.999207 0)
(0.000527317 -0.998598 0)
(0.000581883 -1.00026 0)
(0.000466965 -1.00041 0)
(0.000294356 -1.00039 0)
(9.96023e-05 -1.00037 0)
(-9.78574e-05 -1.00037 0)
(-0.000292783 -1.00039 0)
(-0.000465704 -1.00041 0)
(-0.000580744 -1.00026 0)
(-0.000527048 -0.998599 0)
(0.000537235 -0.997908 0)
(0.000576104 -1.00025 0)
(0.000485511 -1.00059 0)
(0.00032009 -1.00064 0)
(0.00011062 -1.00063 0)
(-0.00010785 -1.00064 0)
(-0.000317616 -1.00064 0)
(-0.000483795 -1.00059 0)
(-0.000574678 -1.00025 0)
(-0.00053665 -0.99791 0)
(0.000521979 -0.997242 0)
(0.000559359 -1.00021 0)
(0.000479951 -1.00076 0)
(0.000323565 -1.00088 0)
(0.000113643 -1.00091 0)
(-0.000109287 -1.00091 0)
(-0.00031973 -1.00088 0)
(-0.000476919 -1.00076 0)
(-0.000557277 -1.00022 0)
(-0.000521025 -0.997245 0)
(0.000497867 -0.99662 0)
(0.000531748 -1.00018 0)
(0.000468266 -1.0009 0)
(0.00031718 -1.00111 0)
(0.000113017 -1.00117 0)
(-0.00010617 -1.00118 0)
(-0.000311015 -1.00112 0)
(-0.000463007 -1.00091 0)
(-0.000528637 -1.00018 0)
(-0.000496335 -0.996625 0)
(0.000472369 -0.996035 0)
(0.000502866 -1.00014 0)
(0.000451693 -1.00104 0)
(0.00030639 -1.00134 0)
(0.000110701 -1.00143 0)
(-0.000100376 -1.00144 0)
(-0.00029707 -1.00134 0)
(-0.000444186 -1.00105 0)
(-0.00049799 -1.00014 0)
(-0.000469999 -0.996043 0)
(0.000448452 -0.995479 0)
(0.000477311 -1.0001 0)
(0.000430911 -1.00117 0)
(0.000294076 -1.00155 0)
(0.000108145 -1.00168 0)
(-9.26989e-05 -1.00168 0)
(-0.000280126 -1.00156 0)
(-0.000419904 -1.00118 0)
(-0.000469911 -1.00011 0)
(-0.000444918 -0.995492 0)
(0.000427142 -0.994948 0)
(0.00045551 -1.00006 0)
(0.000412423 -1.00129 0)
(0.000283318 -1.00175 0)
(0.000106915 -1.00192 0)
(-8.37122e-05 -1.00192 0)
(-0.000262344 -1.00176 0)
(-0.000395783 -1.00131 0)
(-0.000444456 -1.00008 0)
(-0.000421911 -0.994969 0)
(0.000408904 -0.994439 0)
(0.000437723 -1.00002 0)
(0.00039802 -1.00141 0)
(0.000275629 -1.00194 0)
(0.000108083 -1.00214 0)
(-7.3266e-05 -1.00214 0)
(-0.00024418 -1.00195 0)
(-0.000373029 -1.00143 0)
(-0.000421146 -1.00005 0)
(-0.000401131 -0.994472 0)
(0.000393907 -0.993948 0)
(0.00042431 -0.999985 0)
(0.000388308 -1.00152 0)
(0.000272043 -1.00212 0)
(0.00011267 -1.00235 0)
(-6.05261e-05 -1.00236 0)
(-0.000224978 -1.00214 0)
(-0.000350808 -1.00155 0)
(-0.00039939 -1.00003 0)
(-0.000382367 -0.993998 0)
(0.000382213 -0.993469 0)
(0.000415698 -0.999947 0)
(0.00038408 -1.00162 0)
(0.000273816 -1.00229 0)
(0.000122088 -1.00255 0)
(-4.40719e-05 -1.00257 0)
(-0.000203448 -1.00232 0)
(-0.000327809 -1.00167 0)
(-0.000378228 -1.00001 0)
(-0.000365089 -0.993546 0)
(0.000374007 -0.992999 0)
(0.000412745 -0.999906 0)
(0.000386778 -1.00172 0)
(0.000282748 -1.00245 0)
(0.000138433 -1.00275 0)
(-2.17371e-05 -1.00277 0)
(-0.000177587 -1.0025 0)
(-0.000302267 -1.00179 0)
(-0.000356323 -1 0)
(-0.000348587 -0.993115 0)
(0.000369693 -0.992531 0)
(0.000416487 -0.999859 0)
(0.000398415 -1.0018 0)
(0.000301786 -1.00261 0)
(0.000164936 -1.00294 0)
(9.76403e-06 -1.00296 0)
(-0.000144425 -1.00268 0)
(-0.000271787 -1.00192 0)
(-0.000331998 -1 0)
(-0.00033204 -0.992706 0)
(0.000369762 -0.992058 0)
(0.000427909 -0.999802 0)
(0.000420059 -1.00188 0)
(0.000335212 -1.00275 0)
(0.000206322 -1.00311 0)
(5.52986e-05 -1.00315 0)
(-9.96663e-05 -1.00286 0)
(-0.000233136 -1.00205 0)
(-0.000303206 -1.00002 0)
(-0.000314601 -0.992322 0)
(0.000375414 -0.991574 0)
(0.00045075 -0.999728 0)
(0.000459541 -1.00194 0)
(0.000389041 -1.00288 0)
(0.000270057 -1.00328 0)
(0.000122313 -1.00334 0)
(-3.6981e-05 -1.00304 0)
(-0.000181967 -1.00219 0)
(-0.000267789 -1.00005 0)
(-0.000295605 -0.991966 0)
(0.000388257 -0.991064 0)
(0.000489591 -0.99963 0)
(0.000522378 -1.00198 0)
(0.000472226 -1.00299 0)
(0.000363072 -1.00344 0)
(0.000222366 -1.00353 0)
(5.73288e-05 -1.00324 0)
(-0.000111397 -1.00236 0)
(-0.000222689 -1.00011 0)
(-0.000276171 -0.991645 0)
(0.000410504 -0.990514 0)
(0.000550741 -0.999493 0)
(0.000618489 -1.00198 0)
(0.000598688 -1.00308 0)
(0.000510488 -1.0036 0)
(0.000373729 -1.00373 0)
(0.00019249 -1.00347 0)
(-1.55983e-05 -1.00258 0)
(-0.000176888 -1.00023 0)
(-0.000263092 -0.991348 0)
(0.000444906 -0.989901 0)
(0.000642043 -0.9993 0)
(0.000761707 -1.00193 0)
(0.000786622 -1.00312 0)
(0.00073827 -1.00372 0)
(0.000611865 -1.00393 0)
(0.000409982 -1.00372 0)
(0.000148833 -1.00285 0)
(-8.7322e-05 -1.00039 0)
(-0.000186831 -0.991064 0)
(0.000495039 -0.989197 0)
(0.000772626 -0.999025 0)
(0.000967867 -1.00181 0)
(0.0010628 -1.00311 0)
(0.00107143 -1.00381 0)
(0.000976965 -1.00412 0)
(0.000757035 -1.00404 0)
(0.000347904 -1.0033 0)
(-0.000275278 -1.0011 0)
(-0.000595507 -0.99327 0)
(0.000564741 -0.988349 0)
(0.000953603 -0.998627 0)
(0.00125887 -1.00158 0)
(0.00146413 -1.00299 0)
(0.00158194 -1.00381 0)
(0.00160844 -1.00427 0)
(0.00152753 -1.0044 0)
(0.00143697 -1.00387 0)
(0.00225215 -1.00114 0)
(0.00885113 -0.980237 0)
(0.000660361 -0.98732 0)
(0.00119137 -0.998057 0)
(0.00164693 -1.00117 0)
(0.00200534 -1.00271 0)
(0.00228171 -1.00363 0)
(0.00249796 -1.00418 0)
(0.00264993 -1.00434 0)
(0.00261451 -1.00376 0)
(0.00297658 -0.999797 0)
(0.0160245 -0.964002 0)
(0.000779913 -0.98606 0)
(0.00148574 -0.997268 0)
(0.0021288 -1.00055 0)
(0.00267523 -1.0022 0)
(0.0031396 -1.00322 0)
(0.00355583 -1.00384 0)
(0.00396621 -1.00398 0)
(0.00424166 -1.00299 0)
(0.00404994 -0.997534 0)
(0.0201522 -0.95041 0)
(0.000923507 -0.984519 0)
(0.0018379 -0.996212 0)
(0.00270461 -0.999665 0)
(0.00347304 -1.00142 0)
(0.00415826 -1.00253 0)
(0.00479616 -1.00321 0)
(0.00549701 -1.00326 0)
(0.00636502 -1.00167 0)
(0.00612513 -0.993858 0)
(0.0239758 -0.934715 0)
(0.00109283 -0.982648 0)
(0.00225255 -0.994842 0)
(0.00338153 -0.99847 0)
(0.0044086 -1.00034 0)
(0.00535205 -1.00153 0)
(0.00624515 -1.00224 0)
(0.00721856 -1.00215 0)
(0.00864318 -0.999743 0)
(0.00870757 -0.988777 0)
(0.0266982 -0.916576 0)
(0.00129097 -0.980389 0)
(0.00273748 -0.993105 0)
(0.00417139 -0.996919 0)
(0.00549613 -0.998906 0)
(0.00673384 -1.00019 0)
(0.00791665 -1.0009 0)
(0.0091695 -1.0006 0)
(0.0111095 -0.997216 0)
(0.0118004 -0.982603 0)
(0.0289193 -0.898828 0)
(0.0015223 -0.977676 0)
(0.00330353 -0.990942 0)
(0.00509159 -0.994954 0)
(0.0067598 -0.99707 0)
(0.00833415 -0.998439 0)
(0.00984916 -0.999154 0)
(0.0114122 -0.99858 0)
(0.0138297 -0.99409 0)
(0.01539 -0.975491 0)
(0.0307381 -0.882295 0)
(0.00179259 -0.974434 0)
(0.00396537 -0.988283 0)
(0.00616642 -0.992509 0)
(0.0082346 -0.99477 0)
(0.0101998 -0.996238 0)
(0.0121025 -0.996947 0)
(0.0140285 -0.996064 0)
(0.0168782 -0.990388 0)
(0.0194456 -0.967726 0)
(0.0327868 -0.867253 0)
(0.00210918 -0.97057 0)
(0.00474079 -0.985044 0)
(0.0074256 -0.989504 0)
(0.00996348 -0.991924 0)
(0.0123888 -0.993504 0)
(0.0147539 -0.994203 0)
(0.0171424 -0.992969 0)
(0.020427 -0.986025 0)
(0.0240776 -0.959429 0)
(0.0363526 -0.853647 0)
(0.00247937 -0.965979 0)
(0.00564859 -0.98113 0)
(0.00890189 -0.985843 0)
(0.0119916 -0.988438 0)
(0.0149573 -0.990139 0)
(0.0178621 -0.990819 0)
(0.0208075 -0.989186 0)
(0.0245847 -0.980878 0)
(0.0290756 -0.950564 0)
(0.0407782 -0.841445 0)
(0.00291553 -0.960527 0)
(0.00672188 -0.976406 0)
(0.0106262 -0.981405 0)
(0.0143648 -0.984198 0)
(0.0179601 -0.986033 0)
(0.0214813 -0.986696 0)
(0.0250497 -0.984641 0)
(0.0293761 -0.974941 0)
(0.0344945 -0.941265 0)
(0.0454084 -0.831124 0)
(0.00342878 -0.954069 0)
(0.00797399 -0.970824 0)
(0.0126437 -0.976074 0)
(0.0171396 -0.97908 0)
(0.0214662 -0.981071 0)
(0.0256955 -0.981734 0)
(0.0299554 -0.979285 0)
(0.0348621 -0.968294 0)
(0.0406532 -0.931844 0)
(0.050431 -0.822669 0)
(0.00401943 -0.946441 0)
(0.00942209 -0.964078 0)
(0.0150121 -0.969694 0)
(0.0203831 -0.972942 0)
(0.0255614 -0.975118 0)
(0.0306138 -0.975819 0)
(0.0356656 -0.973036 0)
(0.0411862 -0.960932 0)
(0.0477154 -0.922291 0)
(0.0562279 -0.816036 0)
(0.00470407 -0.937461 0)
(0.0111103 -0.956061 0)
(0.0177716 -0.962092 0)
(0.0241632 -0.965614 0)
(0.030339 -0.968012 0)
(0.036353 -0.9688 0)
(0.0423248 -0.965779 0)
(0.048557 -0.952821 0)
(0.0556742 -0.912919 0)
(0.0630993 -0.811024 0)
(0.00549631 -0.926901 0)
(0.0130689 -0.946572 0)
(0.0209679 -0.953062 0)
(0.0285512 -0.956896 0)
(0.0358947 -0.959554 0)
(0.0430356 -0.960493 0)
(0.0500762 -0.957365 0)
(0.0571929 -0.943888 0)
(0.0648085 -0.903733 0)
(0.0713976 -0.807348 0)
(0.00640495 -0.914512 0)
(0.0153232 -0.93537 0)
(0.0246493 -0.942371 0)
(0.0336161 -0.946554 0)
(0.0423204 -0.949514 0)
(0.0507827 -0.950672 0)
(0.0590703 -0.947592 0)
(0.0672703 -0.93396 0)
(0.0754415 -0.894609 0)
(0.0815048 -0.804664 0)
(0.00743816 -0.900032 0)
(0.0178948 -0.922201 0)
(0.0288576 -0.929769 0)
(0.0394171 -0.934335 0)
(0.0496941 -0.937632 0)
(0.0596977 -0.939078 0)
(0.0694502 -0.936212 0)
(0.0789349 -0.922878 0)
(0.087857 -0.88528 0)
(0.0937862 -0.80253 0)
(0.00857996 -0.883124 0)
(0.02078 -0.906756 0)
(0.0336198 -0.914969 0)
(0.045995 -0.91995 0)
(0.0580693 -0.923613 0)
(0.0698497 -0.925408 0)
(0.0813118 -0.922924 0)
(0.0923252 -0.910332 0)
(0.102291 -0.875324 0)
(0.108565 -0.800379 0)
(0.00982567 -0.864221 0)
(0.0239498 -0.889155 0)
(0.0388443 -0.898063 0)
(0.053205 -0.903478 0)
(0.0672565 -0.907516 0)
(0.0810081 -0.909699 0)
(0.0943935 -0.907732 0)
(0.107176 -0.896244 0)
(0.118519 -0.86444 0)
(0.125672 -0.797575 0)
(0.0112046 -0.842623 0)
(0.0274192 -0.86927 0)
(0.0445053 -0.87893 0)
(0.0610014 -0.884791 0)
(0.077188 -0.889202 0)
(0.0930838 -0.891789 0)
(0.10859 -0.890434 0)
(0.123384 -0.880313 0)
(0.136461 -0.852113 0)
(0.14505 -0.793408 0)
(0.0127069 -0.818094 0)
(0.0311924 -0.846568 0)
(0.0506615 -0.857056 0)
(0.0694751 -0.863381 0)
(0.0879729 -0.868155 0)
(0.106199 -0.871145 0)
(0.124035 -0.870463 0)
(0.141102 -0.861887 0)
(0.156301 -0.837554 0)
(0.166918 -0.787048 0)
(0.0143138 -0.790328 0)
(0.0352311 -0.820803 0)
(0.0572606 -0.832225 0)
(0.0785499 -0.839044 0)
(0.0995013 -0.844169 0)
(0.120204 -0.847541 0)
(0.140539 -0.847543 0)
(0.160103 -0.840585 0)
(0.177775 -0.82017 0)
(0.190982 -0.777673 0)
(0.0160145 -0.759072 0)
(0.0395113 -0.791747 0)
(0.0642491 -0.804243 0)
(0.0881344 -0.811609 0)
(0.111636 -0.817081 0)
(0.134908 -0.820807 0)
(0.157849 -0.82146 0)
(0.180066 -0.816081 0)
(0.200489 -0.799434 0)
(0.216755 -0.7645 0)
(0.0178169 -0.724127 0)
(0.0440101 -0.75922 0)
(0.0715661 -0.772969 0)
(0.0981265 -0.780972 0)
(0.12422 -0.78681 0)
(0.150087 -0.790858 0)
(0.175663 -0.792098 0)
(0.200598 -0.788164 0)
(0.22393 -0.774954 0)
(0.243577 -0.746893 0)
(0.0197292 -0.685312 0)
(0.048712 -0.723127 0)
(0.0791519 -0.738321 0)
(0.108421 -0.747096 0)
(0.137089 -0.753353 0)
(0.165502 -0.757712 0)
(0.193653 -0.759457 0)
(0.221262 -0.756772 0)
(0.247518 -0.746532 0)
(0.270664 -0.724448 0)
(0.0217421 -0.642409 0)
(0.0536113 -0.683383 0)
(0.0869604 -0.700271 0)
(0.118923 -0.710009 0)
(0.150086 -0.716793 0)
(0.18092 -0.721486 0)
(0.211492 -0.723667 0)
(0.241615 -0.722004 0)
(0.270652 -0.7142 0)
(0.297195 -0.697066 0)
(0.023856 -0.595235 0)
(0.0587108 -0.639921 0)
(0.0949622 -0.658848 0)
(0.129552 -0.669814 0)
(0.163068 -0.677299 0)
(0.196125 -0.682401 0)
(0.22888 -0.68498 0)
(0.26125 -0.684128 0)
(0.292781 -0.678222 0)
(0.322406 -0.664988 0)
(0.026086 -0.543596 0)
(0.0640312 -0.592688 0)
(0.103146 -0.614134 0)
(0.140242 -0.626686 0)
(0.175908 -0.63512 0)
(0.210923 -0.640768 0)
(0.245553 -0.64376 0)
(0.27982 -0.643552 0)
(0.313446 -0.639065 0)
(0.345673 -0.628754 0)
(0.0284562 -0.487257 0)
(0.0696149 -0.54167 0)
(0.111514 -0.566282 0)
(0.150931 -0.580877 0)
(0.188478 -0.590582 0)
(0.225132 -0.596975 0)
(0.261278 -0.600449 0)
(0.29704 -0.600783 0)
(0.332298 -0.597334 0)
(0.366557 -0.589123 0)
(0.0310609 -0.425911 0)
(0.0755363 -0.486835 0)
(0.120044 -0.515502 0)
(0.161511 -0.532717 0)
(0.200606 -0.544078 0)
(0.238536 -0.551463 0)
(0.275815 -0.555535 0)
(0.31266 -0.556372 0)
(0.349082 -0.553687 0)
(0.384793 -0.546943 0)
(0.0340949 -0.359111 0)
(0.081883 -0.428543 0)
(0.128645 -0.462203 0)
(0.171766 -0.482641 0)
(0.212013 -0.496065 0)
(0.250827 -0.5047 0)
(0.288858 -0.509505 0)
(0.326403 -0.510847 0)
(0.363569 -0.50875 0)
(0.400221 -0.503021 0)
(0.0374594 -0.286393 0)
(0.088606 -0.367102 0)
(0.136986 -0.40682 0)
(0.18121 -0.431151 0)
(0.222174 -0.447046 0)
(0.261491 -0.457158 0)
(0.299938 -0.462805 0)
(0.337872 -0.464662 0)
(0.375467 -0.463037 0)
(0.41268 -0.458019 0)
(0.0395961 -0.206889 0)
(0.0946114 -0.304294 0)
(0.144397 -0.350565 0)
(0.189136 -0.37892 0)
(0.23026 -0.397492 0)
(0.26969 -0.409225 0)
(0.308298 -0.415772 0)
(0.346437 -0.418132 0)
(0.38429 -0.416889 0)
(0.421864 -0.412381 0)
(0.0364757 -0.120036 0)
(0.09438 -0.235589 0)
(0.147569 -0.293489 0)
(0.193778 -0.326966 0)
(0.234978 -0.348106 0)
(0.274228 -0.361272 0)
(0.312829 -0.368598 0)
(0.351124 -0.371371 0)
(0.389244 -0.370413 0)
(0.427189 -0.366269 0)
(0.0256095 -0.0436477 0)
(0.0811478 -0.156128 0)
(0.138997 -0.230185 0)
(0.18963 -0.273412 0)
(0.232927 -0.298734 0)
(0.272855 -0.313498 0)
(0.31179 -0.321391 0)
(0.350474 -0.324356 0)
(0.389108 -0.323512 0)
(0.427676 -0.319583 0)
(0.0142293 0.00304476 0)
(0.0575583 -0.0812802 0)
(0.114552 -0.160179 0)
(0.169752 -0.213849 0)
(0.21779 -0.246176 0)
(0.260892 -0.264253 0)
(0.301812 -0.273284 0)
(0.341944 -0.276437 0)
(0.381846 -0.275557 0)
(0.421647 -0.271743 0)
(0.00552016 0.0338598 0)
(0.0338517 -0.0195583 0)
(0.0799913 -0.0905534 0)
(0.132775 -0.148223 0)
(0.183951 -0.187093 0)
(0.231774 -0.210204 0)
(0.277051 -0.222002 0)
(0.320779 -0.226312 0)
(0.363601 -0.225841 0)
(0.405892 -0.222241 0)
(-0.00683256 0.0481008 0)
(0.0140008 0.0157681 0)
(0.0435611 -0.0358931 0)
(0.0840036 -0.0857694 0)
(0.131049 -0.123907 0)
(0.180775 -0.149284 0)
(0.230772 -0.163814 0)
(0.279996 -0.170336 0)
(0.328103 -0.171375 0)
(0.37507 -0.168719 0)
(-0.019743 0.0445173 0)
(-0.016113 0.0256432 0)
(0.00257812 -0.00320217 0)
(0.0290175 -0.0374241 0)
(0.0660843 -0.0663552 0)
(0.112037 -0.0870853 0)
(0.163718 -0.0994297 0)
(0.217768 -0.105727 0)
(0.271804 -0.107824 0)
(0.324808 -0.106273 0)
(-0.0245511 0.0131043 0)
(-0.0466855 0.00371935 0)
(-0.05672 -0.0121322 0)
(-0.039474 -0.0243904 0)
(-0.0111608 -0.0363015 0)
(0.028854 -0.0440307 0)
(0.078219 -0.0472089 0)
(0.132447 -0.0501112 0)
(0.195827 -0.0523778 0)
(0.256533 -0.0520138 0)
(-0.0387268 -0.150103 0)
(-0.114784 0.0120233 0)
(-0.100476 0.0171064 0)
(-0.0864198 0.0188377 0)
(-0.0702215 0.0210029 0)
(-0.0515619 0.0223192 0)
(-0.031833 0.0228548 0)
(-0.0131195 0.0231158 0)
(0.00551102 0.0228392 0)
(0.0237799 0.0213052 0)
(0.0407317 0.0199686 0)
(0.0582183 0.0183211 0)
(0.0722893 0.0157318 0)
(0.083851 0.012752 0)
(0.0927831 0.00963714 0)
(0.0987398 0.00664791 0)
(0.101549 0.00371957 0)
(0.100925 0.000201579 0)
(0.0966598 -0.00364611 0)
(0.0884251 -0.00762644 0)
(0.0760674 -0.011571 0)
(0.0596925 -0.0151006 0)
(0.0396908 -0.0166735 0)
(0.017857 -0.0140238 0)
(0.0038256 -0.00718108 0)
(-0.02303 -0.219968 0)
(-0.0689786 -0.0109576 0)
(-0.0754017 0.0180824 0)
(-0.0718402 0.0267933 0)
(-0.0625904 0.0323295 0)
(-0.0500119 0.0360571 0)
(-0.0353695 0.0381309 0)
(-0.0194302 0.0388525 0)
(-0.00296612 0.0382751 0)
(0.0130697 0.0363937 0)
(0.0279305 0.0335799 0)
(0.0413251 0.0298436 0)
(0.0529597 0.0251003 0)
(0.0627281 0.0198045 0)
(0.0704285 0.0141861 0)
(0.0758574 0.00828896 0)
(0.078875 0.00206703 0)
(0.0795771 -0.00448946 0)
(0.0780078 -0.0113897 0)
(0.0740593 -0.0186468 0)
(0.0675779 -0.0260965 0)
(0.0582997 -0.0331355 0)
(0.0461557 -0.0379075 0)
(0.0290099 -0.0368554 0)
(0.0116414 -0.0267909 0)
(-0.00421606 -0.291735 0)
(-0.0504515 -0.0411094 0)
(-0.0634359 0.0132042 0)
(-0.06457 0.0325485 0)
(-0.0591885 0.0438684 0)
(-0.049776 0.0511355 0)
(-0.0378925 0.0553443 0)
(-0.0245314 0.0570312 0)
(-0.0105325 0.0565983 0)
(0.00334843 0.0543144 0)
(0.0164769 0.0504192 0)
(0.0283886 0.0450785 0)
(0.0387816 0.0384851 0)
(0.0474588 0.0309718 0)
(0.0542478 0.0228251 0)
(0.0590264 0.0142315 0)
(0.0617483 0.00527687 0)
(0.0624547 -0.00406578 0)
(0.0612416 -0.0138704 0)
(0.0581948 -0.0241647 0)
(0.0533764 -0.0348486 0)
(0.0467254 -0.0454361 0)
(0.0380869 -0.0543682 0)
(0.0265292 -0.057715 0)
(0.0135804 -0.0498747 0)
(0.00578819 -0.363736 0)
(-0.0442138 -0.0781728 0)
(-0.0610363 0.0033225 0)
(-0.0646474 0.0351862 0)
(-0.0611572 0.0531588 0)
(-0.0533663 0.0645671 0)
(-0.0430408 0.0713961 0)
(-0.0312157 0.0745053 0)
(-0.0186873 0.0744675 0)
(-0.00611384 0.071712 0)
(0.00593847 0.066609 0)
(0.0169857 0.059509 0)
(0.0266581 0.0507837 0)
(0.0346922 0.0408604 0)
(0.0409202 0.0301338 0)
(0.0452716 0.0189034 0)
(0.0477665 0.00735301 0)
(0.0484951 -0.00444644 0)
(0.0475817 -0.0165218 0)
(0.0451569 -0.02894 0)
(0.041337 -0.0417075 0)
(0.0361579 -0.0545746 0)
(0.0294576 -0.0664897 0)
(0.0210047 -0.0743336 0)
(0.0126675 -0.0754164 0)
(0.0142688 -0.42421 0)
(-0.0367765 -0.124608 0)
(-0.0592728 -0.0132638 0)
(-0.0661629 0.0343059 0)
(-0.0651646 0.0603149 0)
(-0.0587762 0.0761992 0)
(-0.0497751 0.0856937 0)
(-0.0391724 0.0902971 0)
(-0.0277403 0.0908256 0)
(-0.0160896 0.0878327 0)
(-0.00476105 0.0817805 0)
(0.00575507 0.0731336 0)
(0.0150334 0.0624155 0)
(0.0227546 0.0501982 0)
(0.0287321 0.0370328 0)
(0.0329198 0.0233652 0)
(0.0353883 0.00948686 0)
(0.0362802 -0.00447153 0)
(0.0357573 -0.0185142 0)
(0.0339778 -0.0327104 0)
(0.0310812 -0.0471053 0)
(0.0271392 -0.0615649 0)
(0.0220277 -0.0753902 0)
(0.0153996 -0.0865336 0)
(0.0101415 -0.0926301 0)
(0.023215 -0.472636 0)
(-0.0261965 -0.176013 0)
(-0.0523789 -0.0373605 0)
(-0.0648455 0.0282056 0)
(-0.0672671 0.0641845 0)
(-0.0633709 0.0854582 0)
(-0.056251 0.0980308 0)
(-0.0472523 0.104362 0)
(-0.0371035 0.105736 0)
(-0.0264315 0.102831 0)
(-0.015777 0.0961579 0)
(-0.0056642 0.0862413 0)
(0.00342218 0.0737118 0)
(0.0110845 0.0593163 0)
(0.0170809 0.0438137 0)
(0.0213538 0.0278455 0)
(0.024002 0.0118383 0)
(0.0252135 -0.00401507 0)
(0.0251892 -0.0197152 0)
(0.0241128 -0.0353636 0)
(0.0221395 -0.0510603 0)
(0.0193598 -0.0667584 0)
(0.0157253 -0.0819841 0)
(0.0106921 -0.0954539 0)
(0.00751242 -0.104779 0)
(0.0290605 -0.51071 0)
(-0.0133451 -0.22571 0)
(-0.0416606 -0.0685145 0)
(-0.0591566 0.0157378 0)
(-0.0657148 0.0631105 0)
(-0.0656106 0.0911268 0)
(-0.0613514 0.107522 0)
(-0.0546274 0.116151 0)
(-0.0462251 0.118897 0)
(-0.0368414 0.116591 0)
(-0.027025 0.109778 0)
(-0.0173368 0.0989931 0)
(-0.0083458 0.084946 0)
(-0.000550087 0.0685497 0)
(0.00570801 0.0508154 0)
(0.0103082 0.0326459 0)
(0.0133426 0.0146466 0)
(0.015032 -0.00291326 0)
(0.0156164 -0.0200384 0)
(0.015308 -0.0368771 0)
(0.0142813 -0.0535981 0)
(0.0126456 -0.0702514 0)
(0.0104138 -0.0865523 0)
(0.00695889 -0.101695 0)
(0.00539728 -0.11333 0)
(0.0335086 -0.541073 0)
(-0.00109243 -0.270294 0)
(-0.0303113 -0.102093 0)
(-0.0506882 -0.00282349 0)
(-0.0616323 0.0561264 0)
(-0.0656049 0.0916388 0)
(-0.0649569 0.112885 0)
(-0.060977 0.124854 0)
(-0.0548434 0.129713 0)
(-0.0471736 0.1287 0)
(-0.0384979 0.122433 0)
(-0.029366 0.111385 0)
(-0.0204358 0.0962781 0)
(-0.0123425 0.078177 0)
(-0.0055805 0.0583646 0)
(-0.000395231 0.038066 0)
(0.00324435 0.0181504 0)
(0.00557085 -0.000993217 0)
(0.00686699 -0.0193727 0)
(0.00738279 -0.0371984 0)
(0.00731913 -0.0547168 0)
(0.00680463 -0.0720745 0)
(0.00588713 -0.0891557 0)
(0.00393743 -0.105486 0)
(0.00378049 -0.118791 0)
(0.0375617 -0.565232 0)
(0.00907891 -0.31012 0)
(-0.0193969 -0.136622 0)
(-0.0414171 -0.026073 0)
(-0.0558641 0.0434059 0)
(-0.0638308 0.0868137 0)
(-0.0668397 0.113831 0)
(-0.0662237 0.12974 0)
(-0.0628903 0.137493 0)
(-0.0574094 0.138597 0)
(-0.0503012 0.133749 0)
(-0.0419659 0.123292 0)
(-0.0331313 0.107824 0)
(-0.024586 0.0884826 0)
(-0.0170406 0.0668205 0)
(-0.0109614 0.0444529 0)
(-0.00645725 0.0226166 0)
(-0.00331958 0.00191278 0)
(-0.00121362 -0.0176278 0)
(0.000169925 -0.0362935 0)
(0.0010723 -0.0544319 0)
(0.00164259 -0.0722931 0)
(0.00194431 -0.0899129 0)
(0.00139623 -0.107078 0)
(0.00242854 -0.121674 0)
(0.0416101 -0.584988 0)
(0.0177608 -0.345722 0)
(-0.00926478 -0.17081 0)
(-0.0322369 -0.0522565 0)
(-0.049438 0.0261284 0)
(-0.0609432 0.0771015 0)
(-0.0676833 0.109828 0)
(-0.0706486 0.130216 0)
(-0.0705052 0.141615 0)
(-0.0676046 0.145681 0)
(-0.0625706 0.14324 0)
(-0.0554266 0.134459 0)
(-0.0468409 0.119629 0)
(-0.037744 0.0997716 0)
(-0.029101 0.0766286 0)
(-0.0217182 0.0522462 0)
(-0.0159903 0.0283783 0)
(-0.0118098 0.00600994 0)
(-0.00877679 -0.0147065 0)
(-0.00648335 -0.0341432 0)
(-0.00461892 -0.0527809 0)
(-0.00300246 -0.070999 0)
(-0.00157157 -0.0889876 0)
(-0.000816838 -0.106745 0)
(0.00113917 -0.122359 0)
(0.0456697 -0.601489 0)
(0.0253912 -0.377698 0)
(-2.31289e-05 -0.204197 0)
(-0.0235219 -0.0805 0)
(-0.042868 0.00487475 0)
(-0.0575081 0.0625286 0)
(-0.0678328 0.100876 0)
(-0.0744411 0.125977 0)
(-0.0778129 0.141572 0)
(-0.0780658 0.149194 0)
(-0.0752671 0.150359 0)
(-0.0699325 0.144459 0)
(-0.0619998 0.131569 0)
(-0.0524378 0.112297 0)
(-0.0424372 0.0883228 0)
(-0.0332369 0.0620535 0)
(-0.0257489 0.0359133 0)
(-0.0201534 0.0115798 0)
(-0.0160021 -0.010472 0)
(-0.0127264 -0.0307007 0)
(-0.00988871 -0.0497789 0)
(-0.00725067 -0.0682612 0)
(-0.00475577 -0.086519 0)
(-0.00279444 -0.104771 0)
(-3.098e-05 -0.121059 0)
(0.0501276 -0.615632 0)
(0.0324111 -0.406721 0)
(0.00844694 -0.236685 0)
(-0.0153344 -0.110168 0)
(-0.0363509 -0.0196025 0)
(-0.053691 0.0436623 0)
(-0.067301 0.0871544 0)
(-0.0774404 0.116834 0)
(-0.0843858 0.136757 0)
(-0.088223 0.149041 0)
(-0.0883809 0.154038 0)
(-0.0852471 0.152547 0)
(-0.0788088 0.143122 0)
(-0.0693089 0.12601 0)
(-0.0579862 0.102383 0)
(-0.0464807 0.0746624 0)
(-0.0364566 0.0459322 0)
(-0.0287659 0.0190565 0)
(-0.0231215 -0.00472507 0)
(-0.0186998 -0.0258896 0)
(-0.0148341 -0.0454095 0)
(-0.0111816 -0.0641127 0)
(-0.00767073 -0.0826068 0)
(-0.00459325 -0.101336 0)
(-0.00116863 -0.117919 0)
(0.0553542 -0.628311 0)
(0.0393322 -0.433553 0)
(0.0165162 -0.268404 0)
(-0.00742873 -0.140913 0)
(-0.0297907 -0.0467251 0)
(-0.0494237 0.0210459 0)
(-0.0659282 0.0690589 0)
(-0.0793294 0.103022 0)
(-0.0897333 0.127165 0)
(-0.0970665 0.14396 0)
(-0.101024 0.154126 0)
(-0.100866 0.157299 0)
(-0.0968925 0.153111 0)
(-0.0886444 0.140182 0)
(-0.0767182 0.118885 0)
(-0.0628628 0.0909898 0)
(-0.049342 0.0597081 0)
(-0.038222 0.0293912 0)
(-0.0302207 0.00302629 0)
(-0.0242957 -0.0195529 0)
(-0.0193208 -0.0396986 0)
(-0.0146938 -0.0586269 0)
(-0.0102607 -0.0773532 0)
(-0.0062032 -0.0965579 0)
(-0.00201929 -0.113094 0)
(0.0615834 -0.64021 0)
(0.0466952 -0.458848 0)
(0.0247202 -0.299547 0)
(0.000645533 -0.172529 0)
(-0.022829 -0.0760448 0)
(-0.0443609 -0.00479331 0)
(-0.0633542 0.0470542 0)
(-0.0796776 0.0848538 0)
(-0.0933292 0.112886 0)
(-0.104216 0.133927 0)
(-0.111948 0.149141 0)
(-0.115871 0.157898 0)
(-0.115225 0.159619 0)
(-0.109805 0.153107 0)
(-0.0990058 0.136893 0)
(-0.0838644 0.111487 0)
(-0.0664786 0.079162 0)
(-0.0500525 0.0445084 0)
(-0.0378136 0.0138424 0)
(-0.0295474 -0.0111734 0)
(-0.0232049 -0.0325024 0)
(-0.0176329 -0.051909 0)
(-0.0124043 -0.0709231 0)
(-0.00752642 -0.0905952 0)
(-0.00274618 -0.106847 0)
(0.0692778 -0.651744 0)
(0.0551341 -0.483115 0)
(0.0337521 -0.33031 0)
(0.00954768 -0.204889 0)
(-0.0148327 -0.10718 0)
(-0.0379073 -0.0333149 0)
(-0.0589788 0.0216858 0)
(-0.0777923 0.0627823 0)
(-0.0943056 0.09419 0)
(-0.108469 0.118906 0)
(-0.120002 0.138507 0)
(-0.128258 0.153114 0)
(-0.132126 0.161128 0)
(-0.130807 0.16199 0)
(-0.123619 0.153822 0)
(-0.109825 0.134682 0)
(-0.0905842 0.105189 0)
(-0.0684233 0.0678209 0)
(-0.0486319 0.0302583 0)
(-0.0354442 0.000137294 0)
(-0.0267698 -0.0235138 0)
(-0.0200287 -0.0439495 0)
(-0.0140225 -0.063468 0)
(-0.00844519 -0.0836072 0)
(-0.00326402 -0.0995431 0)
(0.0789523 -0.663113 0)
(0.0653374 -0.506701 0)
(0.0443919 -0.360839 0)
(0.0200701 -0.237874 0)
(-0.00502264 -0.13978 0)
(-0.0293298 -0.0640157 0)
(-0.052058 -0.00644786 0)
(-0.0728742 0.0374317 0)
(-0.0917398 0.0716827 0)
(-0.108651 0.0994132 0)
(-0.123483 0.122549 0)
(-0.135802 0.141733 0)
(-0.144717 0.156345 0)
(-0.148828 0.164318 0)
(-0.147116 0.165168 0)
(-0.138368 0.156294 0)
(-0.121636 0.134654 0)
(-0.0976788 0.101039 0)
(-0.0695149 0.0581616 0)
(-0.0457978 0.017863 0)
(-0.0313894 -0.0116332 0)
(-0.022149 -0.0343764 0)
(-0.0150469 -0.0549822 0)
(-0.0087726 -0.0758251 0)
(-0.00345777 -0.0918003 0)
(0.0911065 -0.67429 0)
(0.0779952 -0.529751 0)
(0.0574509 -0.39119 0)
(0.033077 -0.271342 0)
(0.00745533 -0.173531 0)
(-0.0178034 -0.096431 0)
(-0.0418033 -0.0367382 0)
(-0.064162 0.00950579 0)
(-0.0848336 0.0461359 0)
(-0.10388 0.0762645 0)
(-0.121323 0.102059 0)
(-0.136985 0.124591 0)
(-0.150288 0.143841 0)
(-0.160208 0.158828 0)
(-0.165283 0.167531 0)
(-0.164049 0.169233 0)
(-0.154449 0.160363 0)
(-0.135743 0.137383 0)
(-0.106997 0.100323 0)
(-0.071774 0.0519694 0)
(-0.0423663 0.00773841 0)
(-0.0256951 -0.0221828 0)
(-0.0153664 -0.0446113 0)
(-0.00771468 -0.0662083 0)
(-0.00295765 -0.0846662 0)
(0.106194 -0.685013 0)
(0.0937551 -0.552193 0)
(0.0737213 -0.421288 0)
(0.0494338 -0.305118 0)
(0.0234704 -0.208147 0)
(-0.00248226 -0.130143 0)
(-0.0274344 -0.0686613 0)
(-0.0509298 -0.0203402 0)
(-0.0729056 0.0183309 0)
(-0.0934812 0.0503799 0)
(-0.112802 0.0780871 0)
(-0.130916 0.102843 0)
(-0.14758 0.125104 0)
(-0.162191 0.144524 0)
(-0.173728 0.160089 0)
(-0.180448 0.170184 0)
(-0.181416 0.173001 0)
(-0.173269 0.165054 0)
(-0.154143 0.143209 0)
(-0.122245 0.104742 0)
(-0.0798273 0.0522641 0)
(-0.0410788 0.000757398 0)
(-0.0170286 -0.0346469 0)
(-0.00389082 -0.0582821 0)
(-0.00104839 -0.0819515 0)
(0.124148 -0.694596 0)
(0.112728 -0.573287 0)
(0.0934746 -0.450303 0)
(0.0695138 -0.338274 0)
(0.043449 -0.242616 0)
(0.0170683 -0.164105 0)
(-0.00854182 -0.101123 0)
(-0.0328378 -0.0509318 0)
(-0.0557057 -0.0104522 0)
(-0.0772795 0.0231817 0)
(-0.0978003 0.0522622 0)
(-0.117481 0.0783611 0)
(-0.136355 0.10227 0)
(-0.154199 0.124096 0)
(-0.170496 0.143403 0)
(-0.184366 0.159242 0)
(-0.194406 0.170066 0)
(-0.198641 0.174277 0)
(-0.194661 0.168337 0)
(-0.179224 0.149993 0)
(-0.148564 0.11545 0)
(-0.103846 0.0672211 0)
(-0.051343 0.0146517 0)
(-0.00569608 -0.0282234 0)
(0.0220576 -0.0584272 0)
(0.144989 -0.702427 0)
(0.135085 -0.592559 0)
(0.11703 -0.47784 0)
(0.0937383 -0.370456 0)
(0.0678579 -0.276578 0)
(0.0412963 -0.197939 0)
(0.0152595 -0.133707 0)
(-0.00960304 -0.0817993 0)
(-0.0330915 -0.0395998 0)
(-0.0552984 -0.00452438 0)
(-0.0765001 0.0256519 0)
(-0.0970283 0.0525805 0)
(-0.117099 0.0772495 0)
(-0.13676 0.100038 0)
(-0.155875 0.120839 0)
(-0.174118 0.139187 0)
(-0.190877 0.154321 0)
(-0.20496 0.165166 0)
(-0.215082 0.169998 0)
(-0.218613 0.165013 0)
(-0.212981 0.149318 0)
(-0.196398 0.122328 0)
(-0.1668 0.089629 0)
(-0.12323 0.0561246 0)
(-0.0849019 0.0154447 0)
(0.169018 -0.707918 0)
(0.161304 -0.609725 0)
(0.145061 -0.503893 0)
(0.122955 -0.401861 0)
(0.0976596 -0.310356 0)
(0.0712247 -0.232008 0)
(0.045007 -0.16681 0)
(0.0197801 -0.113306 0)
(-0.0041446 -0.0694059 0)
(-0.0267724 -0.0328601 0)
(-0.0483479 -0.00162717 0)
(-0.0692453 0.0259425 0)
(-0.0897996 0.0509602 0)
(-0.110213 0.0739824 0)
(-0.130563 0.0950698 0)
(-0.150848 0.113899 0)
(-0.171031 0.129892 0)
(-0.190977 0.142275 0)
(-0.210259 0.149956 0)
(-0.227893 0.151201 0)
(-0.242361 0.142314 0)
(-0.250577 0.119921 0)
(-0.255861 0.0810841 0)
(-0.260763 0.0268629 0)
(-0.264114 -0.0341648 0)
(0.195962 -0.710131 0)
(0.191223 -0.623841 0)
(0.177593 -0.527613 0)
(0.157385 -0.431801 0)
(0.133248 -0.343429 0)
(0.107371 -0.265929 0)
(0.0812895 -0.200119 0)
(0.055933 -0.145227 0)
(0.0317507 -0.0996694 0)
(0.0088403 -0.0615881 0)
(-0.0129484 -0.0291934 0)
(-0.0339435 -0.000924447 0)
(-0.0545132 0.024382 0)
(-0.0749289 0.0474322 0)
(-0.0953236 0.0684093 0)
(-0.115761 0.0870136 0)
(-0.136335 0.102638 0)
(-0.157178 0.114581 0)
(-0.178405 0.122132 0)
(-0.200168 0.124442 0)
(-0.222222 0.120183 0)
(-0.242865 0.107089 0)
(-0.258363 0.0825226 0)
(-0.266494 0.0449422 0)
(-0.267591 -0.00362326 0)
(0.22528 -0.708075 0)
(0.224347 -0.633779 0)
(0.214276 -0.547888 0)
(0.196895 -0.459314 0)
(0.174708 -0.375036 0)
(0.150009 -0.299138 0)
(0.124521 -0.233231 0)
(0.0993702 -0.177254 0)
(0.0751704 -0.130186 0)
(0.0521451 -0.0905722 0)
(0.0302443 -0.0568871 0)
(0.00924263 -0.0277326 0)
(-0.011157 -0.00194282 0)
(-0.031226 0.0213201 0)
(-0.0510714 0.0423946 0)
(-0.0706722 0.0610351 0)
(-0.0900111 0.0766 0)
(-0.109113 0.0883883 0)
(-0.127926 0.0956184 0)
(-0.146553 0.0973024 0)
(-0.164765 0.0926349 0)
(-0.18144 0.0813061 0)
(-0.194454 0.0635401 0)
(-0.200851 0.0402628 0)
(-0.198012 0.0122505 0)
(0.256167 -0.700824 0)
(0.259806 -0.638339 0)
(0.254302 -0.563387 0)
(0.240857 -0.483137 0)
(0.221662 -0.40412 0)
(0.199012 -0.330815 0)
(0.174795 -0.265541 0)
(0.15035 -0.208956 0)
(0.126495 -0.160638 0)
(0.103621 -0.11959 0)
(0.0818045 -0.0845936 0)
(0.0609091 -0.0544172 0)
(0.0406951 -0.0279332 0)
(0.0209789 -0.00419552 0)
(0.00172922 0.0173648 0)
(-0.0170621 0.0366208 0)
(-0.0353146 0.0528804 0)
(-0.0530239 0.0653793 0)
(-0.0700719 0.0733236 0)
(-0.0859652 0.0761896 0)
(-0.100135 0.0739581 0)
(-0.11177 0.0666044 0)