/*--------------------------------*- C++ -*----------------------------------*\
| =========                 |                                                 |
| \\      /  F ield         | OpenFOAM: The Open Source CFD Toolbox           |
|  \\    /   O peration     | Version:  v2012                                 |
|   \\  /    A nd           | Website:  www.openfoam.com                      |
|    \\/     M anipulation  |                                                 |
\*---------------------------------------------------------------------------*/
FoamFile
{
    version     2.0;
    format      ascii;
    class       volScalarField;
    location    "501";
    object      age;
}
// * * * * * * * * * * * * * * * * * * * * * * * * * * * * * * * * * * * * * //

dimensions      [0 0 1 0 0 0 0];


internalField   nonuniform List<scalar> 
6556
(
0.0125016
0.0124997
0.0124998
0.0124998
0.0124999
0.0124999
0.0124998
0.0124998
0.0124997
0.0125016
0.0375088
0.0374976
0.0374976
0.037498
0.0374982
0.0374982
0.037498
0.0374976
0.0374976
0.0375088
0.0625261
0.0624945
0.0624928
0.0624932
0.0624935
0.0624935
0.0624932
0.0624928
0.0624945
0.062526
0.0875538
0.0874915
0.0874852
0.0874847
0.0874849
0.0874849
0.0874847
0.0874852
0.0874915
0.0875538
0.112592
0.112489
0.112475
0.112472
0.112472
0.112472
0.112472
0.112475
0.112489
0.112592
0.13764
0.137487
0.137462
0.137456
0.137455
0.137455
0.137456
0.137462
0.137487
0.13764
0.162697
0.162485
0.162447
0.162437
0.162434
0.162434
0.162437
0.162447
0.162485
0.162697
0.187764
0.187485
0.18743
0.187414
0.187409
0.187409
0.187414
0.18743
0.187484
0.187764
0.212839
0.212485
0.212411
0.212388
0.21238
0.21238
0.212387
0.212411
0.212484
0.212838
0.237922
0.237485
0.23739
0.237358
0.237347
0.237347
0.237358
0.23739
0.237484
0.237921
0.263013
0.262486
0.262368
0.262326
0.262312
0.262311
0.262326
0.262367
0.262485
0.263011
0.288111
0.287488
0.287344
0.287292
0.287273
0.287272
0.287291
0.287342
0.287486
0.288108
0.313217
0.31249
0.312318
0.312254
0.312231
0.31223
0.312253
0.312315
0.312487
0.313213
0.33833
0.337493
0.337291
0.337215
0.337186
0.337185
0.337212
0.337287
0.337488
0.338323
0.36345
0.362497
0.362262
0.362173
0.362138
0.362137
0.362169
0.362256
0.362489
0.363445
0.388578
0.387501
0.387232
0.387128
0.387088
0.387086
0.387123
0.387224
0.38749
0.38855
0.413714
0.412508
0.412202
0.412082
0.412034
0.412031
0.412073
0.412188
0.41249
0.413756
0.438859
0.437516
0.437171
0.437034
0.436978
0.436973
0.43702
0.43715
0.437489
0.438569
0.464014
0.462527
0.462141
0.461985
0.46192
0.461911
0.461962
0.462106
0.462488
0.465078
0.48918
0.487543
0.487112
0.486936
0.486859
0.486845
0.486896
0.487054
0.487472
0.484441
0.51436
0.512565
0.512087
0.511888
0.511797
0.511774
0.511822
0.511987
0.512447
0.534202
0.539558
0.537598
0.537069
0.536844
0.536736
0.536702
0.536744
0.536917
0.537427
0.568062
0.564779
0.562645
0.562062
0.561808
0.561681
0.561634
0.561671
0.561858
0.562415
0.60129
0.590028
0.587714
0.587071
0.586787
0.586638
0.586576
0.586609
0.586825
0.587428
0.633892
0.615314
0.61281
0.612104
0.611787
0.611615
0.611537
0.611569
0.611834
0.61249
0.665879
0.640646
0.637943
0.637168
0.636817
0.63662
0.636526
0.636564
0.636903
0.637614
0.697093
0.666034
0.663124
0.662275
0.661886
0.661663
0.661554
0.661606
0.662047
0.662819
0.727464
0.691491
0.688365
0.687435
0.687006
0.686755
0.686634
0.686707
0.687282
0.688114
0.756834
0.717032
0.71368
0.712663
0.712191
0.711911
0.711778
0.711884
0.712625
0.713501
0.785014
0.742677
0.739087
0.737974
0.737457
0.737146
0.737005
0.737154
0.738097
0.738993
0.811929
0.768444
0.764606
0.763387
0.762821
0.76248
0.762333
0.762536
0.763718
0.764611
0.837594
0.79436
0.790261
0.788925
0.788308
0.787934
0.787784
0.788051
0.789505
0.790376
0.862042
0.820454
0.816081
0.814615
0.813941
0.813533
0.813382
0.813722
0.815478
0.816315
0.885373
0.846759
0.842099
0.840487
0.839751
0.839308
0.839156
0.839572
0.841653
0.842452
0.907723
0.873318
0.868356
0.866578
0.865773
0.865291
0.865138
0.865628
0.868046
0.868811
0.929254
0.900178
0.894897
0.892932
0.89205
0.891524
0.891366
0.891921
0.894672
0.895418
0.95016
0.927397
0.92178
0.919601
0.91863
0.918056
0.917884
0.918487
0.92155
0.922308
0.970701
0.955047
0.949072
0.946648
0.945575
0.944943
0.944748
0.945374
0.948705
0.949524
0.991201
0.983209
0.976854
0.974149
0.972955
0.972256
0.972025
0.972639
0.976172
0.977119
1.01202
1.01199
1.00522
1.0022
1.00086
1.00008
0.999797
1.00036
1.004
1.00516
1.03352
1.0415
1.0343
1.0309
1.02939
1.02852
1.02816
1.02863
1.03227
1.03372
1.05605
1.0719
1.06422
1.06039
1.05867
1.05769
1.05725
1.05757
1.06108
1.06293
1.07855
1.10337
1.09516
1.09083
1.08885
1.08774
1.08719
1.08733
1.09056
1.09298
1.10133
1.13614
1.12733
1.12243
1.12012
1.11885
1.11818
1.11811
1.12089
1.1241
1.12454
1.17049
1.161
1.15542
1.15272
1.15123
1.15042
1.15014
1.1523
1.15658
1.14786
1.20679
1.19648
1.19011
1.1869
1.18515
1.18417
1.18368
1.18504
1.19076
1.17388
1.24552
1.23422
1.22688
1.22304
1.22093
1.21973
1.21906
1.21951
1.226
1.21191
1.28734
1.27477
1.26625
1.26158
1.25898
1.25748
1.25664
1.25624
1.26217
1.25534
1.33316
1.3189
1.30886
1.30311
1.29983
1.2979
1.29686
1.29586
1.30004
1.29971
1.38435
1.36774
1.35563
1.34841
1.34416
1.34161
1.34025
1.33892
1.34095
1.34379
1.44306
1.42294
1.40789
1.39857
1.39294
1.38945
1.38751
1.38601
1.38629
1.38915
1.51312
1.48734
1.46767
1.4552
1.44747
1.44259
1.4397
1.43787
1.43709
1.43857
1.60155
1.56554
1.53821
1.52075
1.50971
1.50263
1.49822
1.4956
1.49416
1.49431
1.72871
1.66908
1.62565
1.59916
1.58287
1.57244
1.56568
1.5615
1.55912
1.55825
1.93501
1.82125
1.74412
1.6978
1.67054
1.65405
1.64379
1.63747
1.63382
1.63213
2.60459
2.11635
1.92161
1.84128
1.79298
1.76327
1.7442
1.73191
1.7243
1.72013
12.426
6.56794
3.1412
2.09461
1.93416
1.88737
1.86417
1.85012
1.84071
1.83454
12.2844
11.552
7.60666
4.2217
2.64257
2.14609
2.03093
1.99135
1.97216
1.96324
11.4183
11.6947
10.9164
7.96707
5.3421
3.71359
2.88438
2.47866
2.32055
2.25115
10.9325
9.99736
9.56127
8.60703
7.22104
6.11095
5.32764
4.72872
4.29047
3.98469
134.4
157.773
157.702
158.071
158.7
159.698
161.223
163.394
166.821
170.405
174.354
178.53
182.214
185.079
187.055
188.177
188.417
188.574
188.728
188.885
189.05
189.236
189.464
189.788
191.731
132.595
155.985
154.328
154.354
154.428
154.901
156.424
160.063
168.732
180.061
192.996
206.646
219.927
231.791
241.304
247.715
250.635
248.89
242.358
231.803
218.897
206.174
196.477
191.485
191.377
126.677
155.143
154.026
153.862
153.767
153.874
154.563
157.181
168.356
187.084
210.171
236.061
263.021
288.673
310.336
325.588
332.628
330.668
319.574
299.831
273.045
242.886
215.639
197.551
191.715
119.872
154.946
154.208
153.967
153.619
153.538
153.775
154.994
165.58
189.729
222.546
261.709
305.235
348.881
387.009
414.426
427.486
424.634
406.38
374.834
333.114
285.606
240.012
206.593
192.622
112.512
155.198
155.129
154.884
153.943
153.432
153.374
153.761
161.351
187.556
228.042
279.644
340.612
404.438
461.319
502.696
522.909
519.405
493.086
448.03
390.226
326.027
263.813
215.962
193.707
104.177
155.665
156.993
157.194
155.419
153.735
153.232
153.358
157.153
180.968
225.527
286.444
362.529
445.359
520.38
575.65
603.649
600.514
567.515
510.421
438.011
359.263
283.45
223.859
194.647
95.4024
155.267
159.582
161.08
158.641
155.166
153.292
153.013
154.108
171.603
215.656
280.981
366.817
463.981
553.959
621.509
657.679
656.735
619.641
554.332
471.595
382.472
297.204
229.5
195.33
86.4077
153.646
162.311
166.12
163.741
158.393
154.149
152.923
152.874
162.472
200.394
264.126
352.818
457.08
556.999
633.748
676.873
678.515
643.856
575.323
488.222
394.37
304.515
232.658
195.738
77.2443
150.667
164.532
171.501
170.286
163.618
156.568
153.117
152.646
155.854
182.949
239.035
322.725
426.798
530.436
611.977
659.444
667.967
637.335
572.301
487.618
395.015
305.556
233.395
195.936
68.0254
146.098
166.027
176.422
177.546
170.642
161.181
154.393
152.553
152.5
167.048
210.555
282.189
378.066
479.387
562.508
613.578
627.773
603.551
547.871
471.474
385.451
300.941
231.915
196.126
58.9286
139.917
167.015
180.376
184.797
178.975
168.133
157.9
152.868
152.286
156.756
183.882
238.322
318.869
411.618
492.849
545.026
564.176
550.276
506.972
442.825
367.485
291.63
228.622
196.316
50.1064
131.553
166.892
183.045
191.46
187.984
177.155
164.522
155.229
152.23
152.167
163.815
198.455
258.251
336.032
412.376
466.131
489.806
485.415
455.277
405.318
343.302
278.781
224.069
196.51
41.7061
121.586
165.112
184.599
197.065
197.196
187.861
174.136
161.216
153.624
151.927
153.97
169.006
205.53
262.2
327.723
382.306
411.666
415.683
398.159
362.739
315.37
263.96
219.204
196.714
33.8484
110.357
161.338
185.122
201.793
206.131
199.838
186.903
171.922
159.333
152.905
151.836
154.57
168.869
201.233
248.27
297.815
333.201
346.442
340.126
318.565
285.901
248.322
214.432
196.924
26.635
98.1921
155.36
184.386
204.589
214.387
212.308
202.001
187.193
171.679
159.13
152.888
151.756
153.419
163.158
186.703
221.444
255.867
279.063
284.466
275.543
257.184
233.855
211.81
198.202
20.0974
85.0539
146.97
182.115
205.913
221.295
224.509
218.387
206.04
190.449
174.503
161.189
153.629
151.279
151.385
155.211
167.775
189.095
212.804
230.41
236.971
233.324
225.197
214.71
203.305
14.5825
71.0437
135.899
177.772
205.382
226.292
235.491
234.629
226.56
213.666
198.095
181.869
167.194
156.769
151.105
149.369
149.315
152.13
159.892
170.413
180.138
185.196
181.866
171.131
156.91
10.3097
56.7201
121.929
170.58
202.668
228.442
244.078
249.273
246.548
238.159
225.897
211.255
195.56
180.153
166.553
156.601
149.978
146.217
144.806
144.722
144.66
144.592
144.455
143.045
141.258
7.15146
42.8179
105.11
159.617
197.13
226.979
249.147
260.869
264.209
261.191
253.545
242.633
229.594
215.409
200.986
187.207
174.927
164.765
157.162
152.405
149.665
148.377
148.299
149.762
154.749
4.90737
30.1365
85.9187
143.994
187.671
221.446
249.158
267.898
277.915
280.949
278.614
272.274
263.003
251.765
239.412
226.707
214.335
202.925
193.063
185.288
180.048
177.626
178.303
182.66
190.99
3.38369
19.4083
65.623
123.448
172.858
211.148
243.033
268.274
285.399
295.194
298.919
297.828
293.143
285.754
276.526
266.34
255.914
245.98
237.099
229.748
224.416
221.584
221.637
224.951
231.43
2.40655
11.212
45.1693
98.4127
151.407
194.821
230.374
260.276
283.922
300.815
311.248
316.167
316.622
313.593
307.915
300.597
292.127
283.408
275.369
268.779
263.946
261.001
260.15
261.597
265.375
1.81229
6.25721
27.3101
70.9213
123.018
170.716
210.403
243.713
271.787
294.523
311.596
324.04
331.181
331.602
330.312
326.629
321.443
314.793
306.974
299.472
293.782
290.106
288.413
288.487
290.127
1.47939
3.63282
14.2423
44.8281
89.937
138.106
181.486
218.267
249.384
275.716
297.371
314.951
327.407
334.818
339.026
336.762
334.808
333.023
330.322
324.972
318.251
312.146
307.309
304.417
303.913
1.31603
2.3182
6.49414
23.4201
56.6282
99.2402
142.923
182.531
216.603
245.535
269.906
290.338
306.797
319.211
328.175
332.799
333.981
334.58
334.432
332.828
330.489
328.341
326.871
325.94
324.99
1.25056
1.67012
3.21467
9.96555
29.29
60.4341
98.1928
136.792
172.45
203.672
230.309
252.755
271.438
286.618
298.371
307.228
312.943
315.894
316.851
316.381
315.001
313.193
311.346
309.769
308.722
1.24067
1.38627
1.97398
3.77259
11.5303
29.204
55.5383
86.9636
119.578
150.526
178.292
202.358
222.772
239.782
253.526
264.255
272.214
277.679
281.054
282.797
283.343
283.081
282.33
281.355
280.379
1.25742
1.3041
1.47574
1.94759
3.68487
10.2324
23.8524
43.7411
67.6949
93.2059
118.214
141.371
161.981
179.801
194.766
206.93
216.502
223.76
229.017
232.6
234.837
236.034
236.468
236.38
235.949
1.29524
1.30514
1.33541
1.45234
1.5959
2.53031
6.37748
14.7721
27.8257
44.071
61.9367
80.0522
97.3957
113.306
127.382
139.424
149.416
157.472
163.772
168.533
171.983
174.35
175.846
176.664
176.974
1.34205
1.34118
1.34362
1.36239
1.40894
1.52992
1.64466
2.72772
6.04415
12.058
20.9196
31.4355
42.6261
53.7622
64.2983
73.8581
82.2384
89.3693
95.2724
100.026
103.742
106.553
108.594
109.996
110.874
1.39092
1.391
1.38736
1.38366
1.3916
1.42113
1.46442
1.55028
1.6388
1.71367
2.84685
5.18089
8.63383
13.0007
18.0065
23.3457
28.4628
33.1189
37.2075
40.6899
43.5738
45.8972
47.7131
49.0843
50.0689
1.44136
1.44405
1.44457
1.44173
1.43872
1.44019
1.45007
1.47426
1.51076
1.54909
1.61081
1.66104
1.71095
1.76132
1.8935
2.36214
3.07139
3.92499
4.83887
5.74466
6.59292
7.35163
8.00261
8.53929
8.96461
1.49629
1.4996
1.50328
1.50574
1.50646
1.50505
1.50551
1.50809
1.52079
1.53489
1.55762
1.58546
1.61555
1.64527
1.6813
1.72024
1.7531
1.78428
1.81509
1.84564
1.87592
1.90592
1.93563
1.96505
1.99422
1.55901
1.56141
1.56534
1.57018
1.57516
1.57912
1.58246
1.58537
1.58821
1.59429
1.60304
1.61437
1.63205
1.64907
1.66775
1.68971
1.71355
1.73801
1.76272
1.78757
1.8125
1.83747
1.86245
1.88745
1.91244
1.63205
1.63348
1.63648
1.641
1.64685
1.65356
1.66061
1.66785
1.67469
1.6819
1.68979
1.69868
1.70853
1.72027
1.73359
1.74827
1.76435
1.78169
1.80011
1.81932
1.83963
1.86103
1.88263
1.90394
1.92522
1.7185
1.71883
1.72082
1.72438
1.72945
1.73594
1.74367
1.75243
1.76196
1.77207
1.78269
1.7939
1.80559
1.81796
1.83113
1.84509
1.85985
1.87541
1.89174
1.90878
1.92646
1.94471
1.9635
1.98277
2.00248
1.83102
1.82969
1.8302
1.83238
1.8361
1.84128
1.84786
1.85574
1.86482
1.87499
1.88611
1.89809
1.91084
1.92429
1.9384
1.95313
1.96845
1.98435
2.00078
2.01771
2.03511
2.05294
2.07116
2.08974
2.10865
1.95993
1.95978
1.96164
1.96501
1.96966
1.97547
1.98237
1.99032
1.99929
2.00924
2.02013
2.0319
2.04448
2.05783
2.07188
2.08658
2.10187
2.11771
2.13404
2.15082
2.16801
2.18558
2.20348
2.22167
2.24014
2.21598
2.1965
2.18564
2.18036
2.17896
2.18043
2.18414
2.18968
2.19677
2.20519
2.2148
2.22548
2.23711
2.24963
2.26294
2.27697
2.29166
2.30695
2.32277
2.33908
2.35582
2.37295
2.39043
2.40821
2.42634
3.7827
3.64808
3.55312
3.48316
3.43027
3.38985
3.35901
3.33575
3.31866
3.30665
3.29893
3.29484
3.29386
3.29556
3.29957
3.30561
3.31344
3.32284
3.33362
3.34562
3.35869
3.37269
3.38752
3.40305
3.41932
197.437
197.722
136.194
178.734
152.103
134.193
143.36
136.455
140.718
141.191
148.354
162.877
163.837
178.753
195.598
202.125
215.504
230.128
239.998
249.783
260.811
270.817
277.392
285.181
293.173
297.284
302.471
305.233
307.574
310.907
322.802
320.291
318.638
308.339
308.62
309.366
279.601
279.111
278.913
235.388
234.83
234.312
176.953
176.727
176.372
111.336
111.511
111.504
50.7131
51.0992
51.3184
9.26353
9.47528
9.62539
2.01965
2.0448
2.06978
1.93588
1.95778
1.97967
1.94562
1.96512
1.98442
2.0213
2.03913
2.05718
2.12664
2.14367
2.16087
2.25767
2.27423
2.29093
2.4431
2.45925
2.47551
3.434
3.44895
3.4641
156.887
136.571
128.185
127.39
127.027
126.838
126.691
126.561
126.445
126.341
126.244
126.155
126.071
125.992
125.917
125.845
125.775
125.708
125.643
125.58
125.518
125.458
125.399
125.341
125.284
125.228
125.173
125.118
125.064
125.01
124.957
124.905
124.853
124.801
124.749
124.698
124.647
124.596
124.545
124.494
124.442
124.38
124.308
124.225
124.131
124.024
123.905
123.773
123.628
123.469
123.299
123.116
122.924
122.726
122.525
122.328
122.145
121.987
121.869
121.78
121.68
121.564
121.424
121.284
121.257
121.349
121.629
122.312
123.098
124.094
125.238
126.63
127.823
128.516
128.712
128.866
129.019
129.187
129.38
130.307
139.535
130.761
127.895
127.556
127.517
127.74
128.181
128.854
129.744
130.816
132.002
133.25
134.529
135.815
137.091
138.344
139.566
140.75
141.892
142.988
144.039
145.042
145.997
146.905
147.766
148.578
149.344
150.062
150.732
151.354
151.926
152.448
152.919
153.335
153.696
153.997
154.237
154.411
154.514
154.542
154.494
154.368
154.149
153.831
153.406
152.866
152.203
151.407
150.469
149.381
148.132
146.715
145.122
143.348
141.391
139.254
136.95
134.507
132.009
129.546
127.173
124.999
123.138
121.645
120.749
120.496
120.324
120.9
122.647
125.654
129.959
135.13
140.197
144.053
145.489
143.664
139.284
134.371
131.029
130.415
133.577
128.654
128.019
128.269
129.307
131.132
133.728
136.954
140.603
144.48
148.44
152.413
156.336
160.161
163.858
167.408
170.802
174.034
177.106
180.019
182.778
185.389
187.857
190.186
192.383
194.453
196.398
198.223
199.93
201.52
202.993
204.35
205.589
206.706
207.7
208.564
209.293
209.879
210.314
210.589
210.692
210.615
210.35
209.875
209.175
208.232
207.024
205.531
203.731
201.597
199.107
196.235
192.956
189.248
185.092
180.473
175.388
169.845
163.875
157.537
150.932
144.212
137.603
131.422
126.128
122.49
120.418
119.957
121.125
124.919
131.768
141.303
151.888
161.087
166.77
165.096
156.513
144.495
134.701
130.874
131.421
128.523
128.626
130.24
133.334
137.89
143.64
150.191
157.184
164.35
171.506
178.525
185.321
191.838
198.05
203.945
209.522
214.789
219.756
224.439
228.852
233.01
236.927
240.616
244.091
247.362
250.438
253.326
256.034
258.564
260.921
263.104
265.113
266.946
268.598
270.063
271.334
272.4
273.25
273.869
274.243
274.353
274.183
273.71
272.908
271.748
270.2
268.232
265.805
262.883
259.422
255.38
250.711
245.371
239.316
232.507
224.914
216.521
207.333
197.391
186.782
175.659
164.266
152.956
142.217
132.705
125.298
121.078
119.761
121.889
128.622
140.193
155.158
170.46
182.257
180.783
170.299
153.595
138.37
131.4
130.693
128.67
129.931
133.503
139.365
147.224
156.485
166.553
176.969
187.407
197.644
207.534
216.993
225.976
234.472
242.483
250.024
257.118
263.79
270.065
275.969
281.527
286.762
291.695
296.344
300.726
304.855
308.741
312.395
315.823
319.029
322.016
324.783
327.328
329.647
331.731
333.572
335.158
336.473
337.501
338.221
338.611
338.647
338.303
337.55
336.353
334.672
332.467
329.692
326.296
322.225
317.422
311.825
305.369
297.988
289.616
280.19
269.659
257.984
245.16
231.223
216.278
200.526
184.295
168.084
152.605
138.834
128.015
121.649
119.628
122.867
132.705
148.585
167.183
182.782
189.237
177.369
158.669
140.718
131.794
130.379
129.03
131.836
137.822
146.843
158.198
170.988
184.47
198.111
211.549
224.552
236.987
248.788
259.932
270.425
280.288
289.553
298.255
306.432
314.12
321.355
328.169
334.593
340.654
346.376
351.78
356.884
361.702
366.247
370.527
374.548
378.313
381.823
385.075
388.063
390.779
393.211
395.345
397.163
398.645
399.766
400.5
400.816
400.681
400.063
398.924
397.219
394.902
391.923
388.227
383.755
378.444
372.227
365.03
356.777
347.387
336.776
324.862
311.567
296.83
280.621
262.958
243.943
223.801
202.937
182.007
161.985
144.189
130.249
122.013
119.477
123.681
135.955
154.086
172.01
181.335
176.284
159.377
141.508
132.02
130.274
129.689
134.206
142.905
155.244
170.071
186.232
202.874
219.421
235.508
250.925
265.566
279.391
292.403
304.629
316.107
326.884
337.009
346.532
355.498
363.953
371.936
379.485
386.633
393.407
399.834
405.933
411.721
417.213
422.418
427.342
431.986
436.351
440.431
444.217
447.698
450.857
453.674
456.126
458.185
459.82
460.995
461.674
461.814
461.371
460.307
458.57
456.113
452.882
448.826
443.888
438.013
431.14
423.207
414.145
403.88
392.332
379.412
365.027
349.082
331.489
312.187
291.164
268.502
244.429
219.409
194.232
170.103
148.657
131.929
122.127
119.252
124.093
137.53
155.134
168.218
168.783
156.577
141.069
132.215
130.306
130.478
136.936
148.522
164.189
182.344
201.625
221.108
240.209
258.59
276.081
292.612
308.175
322.8
336.535
349.438
361.572
373.001
383.786
393.985
403.65
412.829
421.565
429.894
437.849
445.456
452.739
459.713
466.391
472.782
478.888
484.709
490.237
495.463
500.37
504.937
509.141
512.948
516.324
519.228
521.614
523.432
524.631
525.154
524.943
523.942
522.097
519.353
515.659
510.965
505.229
498.411
490.475
481.387
471.113
459.614
446.845
432.746
417.242
400.241
381.635
361.311
339.173
315.166
289.337
261.897
233.33
204.522
176.83
152.192
133.046
121.956
118.883
123.94
137.364
152.198
158.183
151.848
139.913
132.409
130.438
131.349
139.977
154.542
173.463
194.733
216.835
238.813
260.113
280.448
299.696
317.83
334.879
350.901
365.971
380.168
393.576
406.273
418.333
429.825
440.81
451.34
461.464
471.22
480.642
489.756
498.584
507.14
515.432
523.463
531.23
538.725
545.932
552.829
559.389
565.576
571.347
576.654
581.44
585.64
589.185
591.999
594.003
595.116
595.256
594.341
592.304
589.077
584.606
578.851
571.784
563.394
553.683
542.668
530.374
516.827
502.052
486.058
468.83
450.324
430.454
409.102
386.122
361.366
334.729
306.206
275.977
244.526
212.737
182.099
154.802
133.617
121.506
118.282
123.367
136.242
147.389
146.559
138.617
132.611
130.583
132.281
143.345
160.946
183
207.13
231.72
255.835
278.981
300.938
321.642
341.116
359.428
376.671
392.948
408.366
423.028
437.029
450.457
463.39
475.895
488.03
499.846
511.382
522.671
533.737
544.597
555.26
565.73
576
586.058
595.883
605.448
614.713
623.634
632.152
640.203
647.707
654.576
660.711
666.004
670.336
673.586
675.631
676.35
675.63
673.364
669.471
663.889
656.584
647.55
636.814
624.433
610.494
595.105
578.389
560.473
541.471
521.471
500.519
478.602
455.641
431.492
405.959
378.827
349.921
319.171
286.711
252.978
218.88
185.959
156.556
133.728
120.79
117.443
122.662
135.116
142.479
137.299
132.827
130.711
133.442
147.16
167.847
192.875
219.563
246.277
272.151
296.781
320.029
341.897
362.461
381.833
400.146
417.536
434.135
450.067
465.444
480.365
494.918
509.174
523.197
537.037
550.733
564.317
577.809
591.221
604.558
617.812
630.969
644.005
656.885
669.564
681.984
694.074
705.75
716.913
727.447
737.221
746.085
753.872
760.405
765.498
768.965
770.625
770.311
767.875
763.195
756.2
746.86
735.202
721.303
705.295
687.356
667.706
646.591
624.266
600.981
576.955
552.358
527.285
501.746
475.646
448.793
420.914
391.709
360.916
328.399
294.239
258.842
223.085
188.533
157.57
133.463
119.848
116.393
122.086
134.405
136.844
133.064
130.823
134.92
151.635
175.497
203.297
232.182
260.604
287.822
313.553
337.748
360.483
381.888
402.125
421.365
439.775
457.512
474.719
491.523
508.033
524.343
540.532
556.664
572.791
588.954
605.18
621.49
637.889
654.378
670.941
687.555
704.184
720.779
737.276
753.595
769.64
785.293
800.417
814.85
828.407
840.871
852.002
861.536
869.196
874.707
877.801
878.234
875.797
870.307
861.674
849.879
834.988
817.156
796.615
773.666
748.668
722.016
694.12
665.38
636.162
606.771
577.429
548.252
519.235
490.238
460.991
431.127
400.241
367.986
334.167
298.838
262.383
225.639
190.075
158.087
132.992
118.701
115.092
122.259
134.848
133.276
130.92
137.179
157.339
184.39
214.648
245.249
274.87
302.959
329.365
354.14
377.427
399.415
420.308
440.311
459.617
478.404
496.831
515.033
533.13
551.222
569.39
587.703
606.214
624.965
643.986
663.294
682.895
702.784
722.943
743.342
763.936
784.664
805.447
826.187
846.76
867.018
886.785
905.85
923.968
940.847
956.151
969.505
980.511
988.768
993.885
995.506
993.337
987.115
976.732
962.197
943.622
921.266
895.498
866.781
835.642
802.648
768.377
733.388
698.192
663.226
628.827
595.217
562.479
530.554
499.224
468.126
436.79
404.71
371.464
336.827
300.864
263.968
226.92
191.076
158.608
132.757
117.444
113.255
121.376
133.674
131.111
140.346
164.868
195.156
227.388
259.067
289.26
317.664
344.272
369.225
392.728
415.014
436.322
456.88
476.898
496.567
516.053
535.5
555.032
574.752
594.746
615.086
635.827
657.015
678.679
700.841
723.507
746.673
770.32
794.418
818.916
843.752
868.837
894.061
919.283
944.332
968.998
993.031
1016.13
1037.93
1057.99
1075.8
1090.81
1102.45
1110.15
1113.4
1111.77
1104.94
1092.75
1075.36
1053.02
1026.01
994.833
960.162
922.711
883.235
842.474
801.137
759.861
719.198
679.579
641.308
604.543
569.291
535.404
502.575
470.351
438.172
405.46
371.75
336.83
300.818
264.162
227.623
192.369
160.23
133.913
116.911
110.923
111.425
132.559
147.903
176.483
208.984
242.078
273.883
303.877
331.968
358.261
382.962
406.319
428.589
450.027
470.87
491.335
511.613
531.873
552.26
572.897
593.888
615.322
637.271
659.793
682.936
706.732
731.205
756.363
782.205
808.715
835.864
863.605
891.875
920.587
949.627
978.848
1008.07
1037.07
1065.57
1093.26
1119.72
1144.44
1166.76
1185.91
1201
1211.32
1216.29
1215.52
1208.66
1195.25
1175.04
1149.49
1118.56
1082.79
1043.02
1000.15
955.133
908.843
862.102
815.642
770.091
725.951
683.587
643.208
604.875
568.495
533.827
500.482
467.944
435.606
402.866
369.276
334.683
299.309
263.712
228.696
195.295
164.888
139.305
120.654
110.309
139.504
163.123
193.861
226.53
258.855
289.617
318.568
345.71
371.179
395.2
418.035
439.948
461.187
481.986
502.55
523.065
543.69
564.563
585.805
607.516
629.78
652.67
676.242
700.542
725.605
751.453
778.096
805.532
833.746
862.711
892.38
922.694
953.568
984.892
1016.52
1048.29
1079.99
1111.4
1142.23
1172.12
1200.48
1226.14
1246.42
1260.52
1269.37
1273.75
1274.12
1270.48
1261.26
1241.81
1215.03
1182.13
1143.93
1101.37
1055.44
1007.23
957.718
907.796
858.239
809.709
762.748
717.762
675.005
634.579
596.444
560.417
526.184
493.311
461.258
429.431
397.277
364.429
330.852
296.902
263.276
230.91
200.901
174.48
152.924
137.352
157.579
185.559
215.854
246.782
276.931
305.641
332.812
358.459
382.673
405.635
427.592
448.797
469.484
489.861
510.117
530.418
550.907
571.712
592.938
614.678
637.008
659.995
683.688
708.13
733.35
759.364
786.178
813.784
842.159
871.272
901.077
931.512
962.496
993.917
1025.64
1057.49
1089.27
1120.77
1151.72
1181.77
1210.39
1236.89
1256.65
1268.92
1276.82
1280.83
1283.56
1282.77
1275.39
1258.05
1232.72
1200.85
1163.54
1121.73
1076.41
1028.63
979.421
929.661
880.131
831.495
784.301
738.978
695.819
654.967
616.439
580.116
545.76
513.025
481.472
450.594
419.871
388.866
357.365
325.485
293.696
262.742
233.523
207.001
184.163
165.922
185.148
212.383
240.099
267.945
295.028
321.027
345.889
369.605
392.214
413.813
434.585
454.757
474.539
494.112
513.632
533.237
553.048
573.169
593.696
614.705
636.263
658.423
681.225
704.701
728.871
753.742
779.31
805.556
832.449
859.948
888.001
916.544
945.492
974.733
1004.12
1033.5
1062.65
1091.35
1119.32
1146.23
1171.61
1195.06
1215.11
1230.37
1241.22
1247.46
1248.97
1244.94
1234.82
1218.45
1196.01
1167.92
1134.77
1097.32
1056.44
1013.03
967.978
922.081
876.065
830.561
786.104
743.126
701.943
662.737
625.579
590.419
557.099
525.366
494.883
465.253
436.049
406.876
377.468
347.8
318.151
289.076
261.323
235.708
212.991
193.78
216.745
240.312
264.268
288.325
311.913
334.852
357.072
378.536
399.239
419.21
438.546
457.409
475.965
494.358
512.717
531.151
549.753
568.606
587.785
607.352
627.355
647.835
668.819
690.327
712.368
734.937
758.021
781.593
805.612
830.03
854.791
879.826
905.049
930.346
955.582
980.598
1005.21
1029.19
1052.29
1074.22
1094.6
1113.03
1129.06
1142.1
1151.57
1157.02
1158.02
1154.31
1145.71
1132.16
1113.76
1090.77
1063.6
1032.75
998.844
962.519
924.434
885.23
845.508
805.819
766.649
728.4
691.384
655.809
621.781
589.305
558.295
528.588
499.945
472.072
444.649
417.366
389.993
362.453
334.908
307.729
281.487
256.859
234.481
214.79
247.345
266.517
286.37
306.477
326.482
346.243
365.66
384.672
403.243
421.355
439.02
456.322
473.37
490.263
507.096
523.95
540.894
557.988
575.285
592.829
610.656
628.79
647.25
666.044
685.169
704.617
724.365
744.384
764.629
785.052
805.595
826.191
846.757
867.192
887.379
907.183
926.452
945.011
962.662
979.174
994.287
1007.7
1019.12
1028.21
1034.64
1038.08
1038.22
1034.9
1028
1017.47
1003.36
985.797
965.006
941.291
915.022
886.618
856.527
825.206
793.107
760.659
728.25
696.215
664.82
634.257
604.641
576.013
548.345
521.537
495.436
469.838
444.513
419.243
393.872
368.347
342.786
317.452
292.755
269.206
247.32
227.48
273.895
288.934
304.832
321.177
337.737
354.373
370.972
387.455
403.757
419.815
435.598
451.117
466.415
481.544
496.563
511.526
526.481
541.467
556.518
571.664
586.925
602.319
617.853
633.53
649.345
665.283
681.324
697.437
713.583
729.718
745.789
761.739
777.499
792.989
808.118
822.785
836.877
850.271
862.828
874.396
884.803
893.863
901.377
907.144
910.965
912.653
912.035
909
903.463
895.386
884.78
871.713
856.306
838.725
819.186
797.943
775.274
751.469
726.825
701.634
676.162
650.645
625.278
600.208
575.532
551.297
527.495
504.066
480.908
457.883
434.844
411.662
388.254
364.621
340.866
317.207
293.969
271.543
250.313
230.634
294.78
306.188
318.517
331.452
344.826
358.504
372.367
386.311
400.265
414.145
427.878
441.422
454.771
467.94
480.953
493.837
506.619
519.323
531.97
544.575
557.151
569.707
582.247
594.771
607.274
619.743
632.161
644.504
656.739
668.832
680.742
692.426
703.833
714.909
725.589
735.805
745.483
754.541
762.894
770.446
777.095
782.732
787.241
790.503
792.406
792.832
791.699
788.932
784.475
778.299
770.402
760.817
749.607
736.86
722.696
707.258
690.699
673.185
654.885
635.969
616.598
596.913
577.037
557.062
537.049
517.026
496.984
476.873
456.621
436.139
415.342
394.17
372.607
350.7
328.579
306.451
284.595
263.325
242.946
223.738
309.183
317.44
326.625
336.511
346.963
357.843
369.056
380.5
392.084
403.708
415.275
426.714
437.992
449.093
460.017
470.768
481.356
491.789
502.077
512.228
522.248
532.142
541.913
551.56
561.081
570.465
579.701
588.77
597.652
606.322
614.752
622.914
630.776
638.302
645.454
652.19
658.464
664.228
669.433
674.025
677.945
681.133
683.525
685.057
685.665
685.291
683.886
681.404
677.81
673.08
667.208
660.202
652.087
642.901
632.701
621.558
609.546
596.746
583.245
569.128
554.478
539.367
523.854
507.982
491.77
475.216
458.295
440.96
423.158
404.835
385.959
366.528
346.585
326.229
305.615
284.953
264.488
244.486
225.19
206.828
315.475
321.293
327.94
335.251
343.132
351.481
360.218
369.259
378.505
387.854
397.21
406.497
415.665
424.684
433.535
442.21
450.702
459.01
467.135
475.078
482.843
490.43
497.842
505.08
512.142
519.02
525.705
532.186
538.449
544.479
550.26
555.775
561.004
565.929
570.527
574.775
578.648
582.121
585.165
587.753
589.852
591.432
592.458
592.896
592.718
591.889
590.377
588.152
585.19
581.472
576.985
571.723
565.687
558.888
551.342
543.076
534.117
524.498
514.251
503.41
492.003
480.052
467.569
454.552
440.989
426.856
412.119
396.742
380.695
363.966
346.574
328.57
310.049
291.147
272.038
252.925
234.026
215.56
197.721
180.69
318.434
319.886
322.789
326.849
331.813
337.484
343.713
350.376
357.346
364.505
371.748
378.993
386.181
393.269
400.227
407.034
413.677
420.145
426.433
432.54
438.465
444.207
449.767
455.145
460.339
465.342
470.146
474.743
479.126
483.284
487.209
490.891
494.32
497.487
500.378
502.984
505.289
507.281
508.945
510.267