/*--------------------------------*- C++ -*----------------------------------*\
| =========                 |                                                 |
| \\      /  F ield         | OpenFOAM: The Open Source CFD Toolbox           |
|  \\    /   O peration     | Version:  v2012                                 |
|   \\  /    A nd           | Website:  www.openfoam.com                      |
|    \\/     M anipulation  |                                                 |
\*---------------------------------------------------------------------------*/
FoamFile
{
    version     2.0;
    format      ascii;
    class       volScalarField;
    location    "501";
    object      k;
}
// * * * * * * * * * * * * * * * * * * * * * * * * * * * * * * * * * * * * * //

dimensions      [0 2 -2 0 0 0 0];


internalField   nonuniform List<scalar> 
6556
(
2.08237
2.63378
2.73692
2.76457
2.7781
2.7781
2.76457
2.73692
2.63378
2.08237
1.14132
1.843
2.04023
2.10477
2.12577
2.12577
2.10477
2.04023
1.843
1.14132
0.717536
1.34609
1.56829
1.65386
1.68316
1.68316
1.65386
1.56829
1.34609
0.717536
0.49647
1.02387
1.23885
1.33206
1.36679
1.36679
1.33206
1.23885
1.02388
0.49647
0.367537
0.805961
1.00212
1.09475
1.13171
1.13171
1.09475
1.00212
0.805962
0.367537
0.285658
0.652461
0.827266
0.915028
0.951844
0.951844
0.915029
0.827267
0.652462
0.285659
0.23014
0.540354
0.694814
0.775841
0.811069
0.81107
0.775842
0.694816
0.540356
0.230141
0.190522
0.455892
0.592177
0.665954
0.698852
0.698852
0.665955
0.592179
0.455895
0.190523
0.161084
0.39055
0.511032
0.577738
0.608021
0.608021
0.57774
0.511035
0.390554
0.161086
0.138491
0.338849
0.445738
0.505878
0.533528
0.533529
0.505881
0.445743
0.338854
0.138493
0.120689
0.297149
0.392386
0.446585
0.471728
0.471729
0.446589
0.392391
0.297155
0.120691
0.106354
0.26296
0.348198
0.3971
0.41993
0.419932
0.397106
0.348205
0.262968
0.106357
0.0946014
0.23453
0.311164
0.35538
0.376115
0.376118
0.355388
0.311175
0.234542
0.0946053
0.0848175
0.210599
0.279801
0.319886
0.338741
0.338746
0.319897
0.279816
0.210615
0.0848229
0.0765667
0.190239
0.252993
0.289439
0.306621
0.306627
0.289454
0.253014
0.190261
0.076574
0.0695307
0.172754
0.229888
0.263128
0.278822
0.27883
0.263149
0.229916
0.172784
0.0695404
0.0634722
0.157613
0.209827
0.240237
0.25461
0.254621
0.240266
0.209864
0.157652
0.063485
0.0582108
0.144405
0.192289
0.220197
0.233397
0.233412
0.220237
0.19234
0.144453
0.0582271
0.0536071
0.132804
0.176864
0.202553
0.21471
0.214731
0.202609
0.176934
0.132861
0.0536267
0.0495512
0.122553
0.16322
0.186935
0.198166
0.198194
0.187012
0.163309
0.12258
0.0495721
0.045956
0.113442
0.151088
0.173043
0.183447
0.183488
0.173153
0.151224
0.113545
0.0462513
0.0427509
0.105302
0.140245
0.160627
0.170295
0.170351
0.160782
0.140451
0.105515
0.0444178
0.0398784
0.097993
0.130511
0.149481
0.158491
0.158567
0.149693
0.130805
0.0984343
0.0437838
0.0372913
0.0913997
0.121733
0.139434
0.147854
0.147952
0.139702
0.122093
0.0922522
0.0443593
0.0349503
0.0854256
0.113784
0.130341
0.138231
0.138348
0.130645
0.114207
0.0869895
0.0461845
0.0328226
0.0799899
0.106558
0.122079
0.129493
0.129629
0.122412
0.107138
0.0826486
0.049063
0.0308807
0.0750238
0.0999632
0.114547
0.121532
0.121699
0.114976
0.100872
0.07908
0.0526507
0.029101
0.070469
0.0939229
0.107655
0.114258
0.11447
0.108254
0.0953409
0.076242
0.0565849
0.0274632
0.066275
0.0883703
0.101329
0.107592
0.107868
0.102175
0.0904721
0.0740377
0.0601204
0.0259502
0.0623989
0.0832483
0.0955037
0.101468
0.101829
0.0966714
0.0861921
0.0723313
0.0628323
0.0245469
0.0588028
0.078507
0.0901231
0.0958272
0.0962929
0.0916844
0.0824274
0.0709908
0.0648208
0.02324
0.0554538
0.0741033
0.0851384
0.0906178
0.091209
0.0871572
0.0790979
0.0698277
0.0661639
0.0220181
0.0523229
0.0699992
0.0805067
0.085795
0.0865301
0.0830357
0.0761224
0.0687442
0.0669358
0.0208708
0.0493849
0.0661615
0.0761904
0.0813188
0.0822134
0.0792699
0.0734314
0.0676715
0.0671993
0.019789
0.0466173
0.0625605
0.072156
0.0771535
0.0782204
0.0758134
0.0709644
0.0665559
0.067004
0.0187646
0.0440002
0.0591702
0.0683741
0.0732672
0.0745159
0.0726244
0.0686692
0.0653592
0.0663922
0.0177902
0.041516
0.0559673
0.0648183
0.0696314
0.0710685
0.0696657
0.066503
0.0640582
0.0654055
0.0168592
0.0391492
0.0529311
0.0614654
0.0662208
0.0678504
0.0669054
0.064433
0.0626454
0.0640894
0.0159655
0.0368862
0.0500435
0.0582944
0.0630129
0.0648368
0.0643169
0.0624374
0.0611292
0.0625002
0.0151037
0.0347148
0.0472879
0.0552868
0.0599873
0.0620064
0.0618791
0.0605047
0.0595325
0.0607067
0.0142689
0.0326246
0.0446495
0.0524251
0.0571255
0.0593399
0.0595759
0.0586327
0.05789
0.0587889
0.0134567
0.0306068
0.0421143
0.0496929
0.0544096
0.0568197
0.057394
0.0568252
0.0562436
0.0568339
0.0126632
0.0286536
0.0396688
0.0470734
0.0518211
0.0544279
0.0553214
0.0550885
0.0546357
0.0549279
0.0118848
0.0267578
0.0372997
0.0445486
0.0493398
0.0521446
0.0533443
0.0534256
0.0531015
0.0531459
0.0111183
0.0249128
0.0349924
0.0420982
0.0469419
0.0499456
0.0514431
0.0518316
0.0516608
0.05154
0.0103607
0.0231122
0.0327314
0.0396988
0.0445988
0.0478001
0.0495902
0.0502882
0.0503115
0.0501291
0.00960907
0.0213497
0.0304996
0.037323
0.0422756
0.0456692
0.0477462
0.0487606
0.0490249
0.0488925
0.00886034
0.0196187
0.0282782
0.0349391
0.0399306
0.0435043
0.0458595
0.0471957
0.0477448
0.0477681
0.00811124
0.0179127
0.0260471
0.0325114
0.037515
0.0412476
0.0438657
0.0455231
0.0463904
0.0466579
0.0073578
0.0162253
0.0237857
0.0300017
0.0349756
0.038834
0.0416902
0.0436583
0.044862
0.0454376
0.00659482
0.0145495
0.0214746
0.0273723
0.0322579
0.0361955
0.0392539
0.0415103
0.0430507
0.0439703
0.00581472
0.0128772
0.0191011
0.0245953
0.0293167
0.0332715
0.036483
0.0389917
0.0408509
0.0421233
0.00500568
0.0111861
0.0166538
0.0216613
0.0261327
0.030028
0.033328
0.0360373
0.0381793
0.039787
0.00413322
0.00958059
0.0142
0.0186147
0.0227363
0.0264817
0.0297904
0.0326312
0.0349964
0.0368944
0.00320641
0.00819953
0.0119959
0.0156917
0.0193154
0.0227777
0.0259794
0.0288489
0.0313483
0.0334557
0.00224119
0.00694613
0.0102058
0.0132258
0.0162506
0.0192704
0.0221963
0.0249398
0.0274311
0.0296226
0.00119352
0.00552084
0.00862756
0.0112799
0.0138319
0.0163855
0.0189213
0.0213743
0.0236787
0.0257781
0.000887134
0.00374732
0.00688206
0.00953047
0.0119306
0.014206
0.016394
0.0184821
0.0204471
0.0222605
0.000844027
0.00217259
0.00507487
0.00764522
0.0100547
0.0121734
0.0140779
0.0157739
0.0172924
0.0186532
0.000950381
0.00169101
0.00260869
0.00389375
0.00533893
0.00645468
0.00735596
0.00814199
0.0088157
0.00938433
0.00967701
0.00338705
0.00349055
0.00371112
0.003894
0.00400779
0.00404284
0.00399231
0.00383931
0.00365829
0.00344873
0.00321289
0.00295684
0.00269361
0.00243088
0.00217326
0.00191919
0.00169754
0.00149641
0.00130743
0.00112508
0.00094426
0.000758598
0.000558054
0.000308261
0.0186846
0.00837995
0.00743514
0.00759887
0.00786781
0.00805885
0.00811048
0.00799509
0.00768087
0.00723422
0.00673037
0.00619838
0.00566066
0.00513933
0.00464786
0.00419139
0.00376665
0.0033415
0.00291935
0.00250394
0.00210248
0.00172528
0.00139183
0.00109167
0.000570707
0.0278564
0.0137301
0.0105475
0.00991758
0.00984528
0.00981249
0.00967467
0.00939167
0.00893143
0.00830556
0.00763335
0.00696003
0.00630711
0.00569352
0.00513438
0.00463515
0.00418991
0.00377376
0.00337107
0.0029685
0.00255603
0.00213506
0.00172827
0.00134485
0.000683829
0.0378582
0.0205948
0.0142339
0.0123155
0.0115534
0.011062
0.0105688
0.0100005
0.00932672
0.00854627
0.00773945
0.00697862
0.00626926
0.00562457
0.00505765
0.00457031
0.0041528
0.00378146
0.00343394
0.00308839
0.00272273
0.00232322
0.00189704
0.00145319
0.000727723
0.0477095
0.0294665
0.0192903
0.0152825
0.0134759
0.0123144
0.0113403
0.0104045
0.00946971
0.00853949
0.00762389
0.00677615
0.00601618
0.00535205
0.00479046
0.00432716
0.00394707
0.00362492
0.00333356
0.00304668
0.00273637
0.00237838
0.00196353
0.0014868
0.000730332
0.0551728
0.0386605
0.0255108
0.0189905
0.0158368
0.0138289
0.0122503
0.0108809
0.00964222
0.00851659
0.00749536
0.00656511
0.005748
0.00505468
0.00448919
0.00404185
0.00369275
0.00341339
0.00317069
0.00293429
0.00267318
0.00235735
0.00196602
0.00147755
0.000709817
0.0604035
0.0476442
0.0326395
0.0235828
0.0187618
0.015727
0.0134576
0.0115786
0.00997873
0.00861483
0.00744658
0.0064399
0.00557102
0.00482477
0.00423476
0.00378374
0.00344989
0.00320087
0.00299571
0.00279895
0.00257703
0.00229674
0.0019299
0.00144189
0.000676365
0.0642924
0.0549097
0.0397489
0.0289991
0.0223866
0.0181103
0.0149932
0.0125397
0.0105382
0.00889338
0.00753874
0.00641986
0.00548568
0.0047028
0.00406835
0.00358708
0.00324585
0.00301151
0.0028319
0.00266406
0.00247126
0.00221823
0.00187187
0.00138965
0.000634361
0.0672361
0.060781
0.0465035
0.0348138
0.0265799
0.021001
0.0169246
0.0137862
0.0113061
0.00934752
0.00778745
0.00653001
0.00550786
0.00466516
0.00397563
0.00344931
0.00308755
0.00285364
0.0026868
0.00253764
0.00236548
0.00213295
0.00180295
0.00132808
0.000588623
0.0694075
0.0653304
0.0527543
0.0405739
0.0311048
0.0242987
0.0192363
0.0153522
0.0123283
0.00999797
0.00818623
0.006766
0.00563866
0.00471952
0.00395962
0.00336702
0.00296051
0.00271219
0.00255023
0.00241392
0.00225725
0.00204068
0.00172438
0.00125845
0.000548068
0.0709383
0.0687696
0.0582362
0.0460773
0.0357728
0.0278772
0.0218542
0.0172247
0.0136447
0.0108894
0.00877457
0.00714387
0.00588304
0.00487646
0.00403627
0.00335509
0.00287125
0.0025811
0.00241417
0.00228637
0.00214286
0.00194048
0.00163708
0.00118117
0.000509473
0.071951
0.0713
0.0627763
0.0511556
0.040498
0.0316087
0.0246952
0.0193583
0.0152357
0.0120432
0.00960589
0.0077078
0.00627185
0.00516407
0.00424254
0.00345466
0.00285269
0.00247689
0.00227891
0.00215027
0.0020177
0.00183033
0.00154236
0.00110009
0.000471386
0.0724848
0.0730142
0.0662612
0.0556585
0.044807
0.0352774
0.0276485
0.021697
0.017089
0.0135049
0.0107055
0.00852617
0.00686404
0.00561638
0.00461831
0.00372593
0.00297413
0.00244991
0.0021618
0.0020088
0.00188083
0.00171041
0.00144572
0.00102776
0.000434175
0.0725475
0.0739764
0.0687944
0.05938
0.0486383
0.0387939
0.0306343
0.024188
0.0191768
0.015261
0.0121627
0.0096871
0.00774887
0.00629141
0.00518199
0.00422717
0.00333542
0.00261035
0.00213397
0.00188949
0.00174581
0.0015936
0.00136384
0.000991298
0.000401947
0.0721399
0.0742298
0.070425
0.0622423
0.0519798
0.0421371
0.0335886
0.0267772
0.0214694
0.0173087
0.0139824
0.0112607
0.00904638
0.00730274
0.005978
0.0049391
0.00400151
0.00312199
0.00241169
0.0019331
0.00168993
0.00153763
0.00135985
0.00106744
0.000512323
0.0712687
0.0738202
0.0711915
0.0642119
0.0547728
0.0450516
0.0364168
0.0294046
0.0239226
0.0196174
0.0161615
0.0132895
0.0108669
0.00883841
0.00718334
0.00588168
0.00484531
0.0039415
0.0031395
0.00246747
0.00195762
0.00166788
0.0014736
0.001253
0.0010412
0.0699574
0.0728015
0.0711873
0.0653957
0.0569781
0.0476199
0.0391522
0.032045
0.0265006
0.0221447
0.0186461
0.0157603
0.0132852
0.0110951
0.00912358
0.00742274
0.00599945
0.00486851
0.00399338
0.00331865
0.00285121
0.00255986
0.00246122
0.00253915
0.00274625
0.0682393
0.0712133
0.0704562
0.0658188
0.0584882
0.0498945
0.0416475
0.0346653
0.0291166
0.0248339
0.0214276
0.0186232
0.0162477
0.0141201
0.0120876
0.0101044
0.00822476
0.0065592
0.00518286
0.00416981
0.00352869
0.00322375
0.0031793
0.00327983
0.00350996
0.06617
0.0691244
0.0690617
0.0655272
0.059338
0.0517539
0.0439367
0.0371699
0.0317175
0.0275346
0.0243215
0.0217468
0.0195992
0.0177088
0.015907
0.0140658
0.0121493
0.0102117
0.00838667
0.0068284
0.00567778
0.00499448
0.0047316
0.00474053
0.00494049
0.0638273
0.0666213
0.0670847
0.0645572
0.059526
0.0530073
0.0460558
0.0395395
0.0342631
0.0301798
0.0270966
0.0247707
0.0229421
0.0214117
0.0200097
0.0186067
0.0170963
0.0154398
0.0136651
0.0118718
0.0102151
0.00886323
0.00793998
0.00746271
0.00731528
0.0613101
0.0638134
0.0646252
0.0629772
0.059074
0.0536583
0.0476376
0.0418086
0.036689
0.0327525
0.0297897
0.0275796
0.025978
0.0247659
0.023768
0.0228525
0.0219045
0.0208324
0.019576
0.0181395
0.0165798
0.0149982
0.0135109
0.0123565
0.0115676
0.0587333
0.0608332
0.0618078
0.0608726
0.0580045
0.0536975
0.0486561
0.0435795
0.0389968
0.0352185
0.0323506
0.0302824
0.0287858
0.0277435
0.0269982
0.0264162
0.0258959
0.0253408
0.0246559
0.0237837
0.0227127
0.0214627
0.0200715
0.0186916
0.0174831
0.0562187
0.0578316
0.0587859
0.0583629
0.0563836
0.0531203
0.0490828
0.044827
0.0408367
0.0374382
0.0347602
0.0327785
0.0314001
0.030475
0.0298565
0.0294622
0.0291832
0.0289334
0.0286233
0.0281751
0.0275479
0.02673
0.0257317
0.024575
0.0234142
0.0538825
0.0549665
0.0557383
0.0556073
0.0543187
0.0519688
0.0488849
0.0454828
0.0421576
0.0392136
0.0368207
0.0350197
0.0337664
0.0329545
0.0324565
0.0321575
0.0320097
0.0319405
0.031865
0.0317125
0.0314253
0.0309757
0.030358
0.029577
0.0286674
0.0518176
0.0523845
0.0528552
0.0528032
0.0519725
0.0503453
0.0480972
0.0455077
0.0428757
0.0404572
0.0384274
0.0368664
0.0357718
0.0350775
0.0346863
0.0345047
0.0344611
0.034507
0.0346042
0.0346753
0.0346598
0.0345201
0.034239
0.0338102
0.0332379
0.0500772
0.0501965
0.0503124
0.0501667
0.0495588
0.0484223
0.0468274
0.0449389
0.0429605
0.0410862
0.0394679
0.0381991
0.0373058
0.0367525
0.0364698
0.0363792
0.0364482
0.0366329
0.0368688
0.0371106
0.0373156
0.0374384
0.037451
0.0373499
0.0371213
0.0486615
0.0484535
0.0482365
0.0478963
0.0473158
0.0464345
0.04527
0.0439066
0.0424669
0.0410821
0.0398689
0.0389104
0.0382429
0.0378524
0.0376868
0.0376913
0.0378514
0.0381358
0.0385015
0.0389017
0.0392895
0.0396328
0.0399064
0.0400913
0.0401722
0.047512
0.0471301
0.0466715
0.0461247
0.0454547
0.0446387
0.0436849
0.0426362
0.0415618
0.040543
0.0396577
0.0389678
0.038507
0.0382727
0.038224
0.0383151
0.0385405
0.0388835
0.0393197
0.0398184
0.0403452
0.0408666
0.0413505
0.041775
0.0421238
0.0465164
0.0461229
0.0455606
0.0448769
0.0440975
0.0432416
0.0423332
0.0414082
0.0405118
0.0396944
0.0390046
0.0384829
0.0381543
0.0380207
0.0380583
0.0382041
0.0384612
0.0388189
0.0392643
0.0397808
0.0403478
0.0409422
0.0415406
0.0421204
0.0426593
0.0455226
0.0452644
0.0447515
0.0440541
0.043229
0.0423258
0.0413912
0.0404702
0.0396053
0.0388361
0.0381968
0.0377143
0.0374051
0.037273
0.0373051
0.0374631
0.0377004
0.0380208
0.0384158
0.0388756
0.0393894
0.0399446
0.0405268
0.0411209
0.0417091
0.0443586
0.0443507
0.0440247
0.0434498
0.0426914
0.0418133
0.0408758
0.0399344
0.0390378
0.038227
0.0375346
0.0369839
0.036589
0.0363547
0.0362769
0.0363382
0.036509
0.0367439
0.0370353
0.0373813
0.0377752
0.0382091
0.0386751
0.0391646
0.0396664
0.0428562
0.0431717
0.0431324
0.0427966
0.0422251
0.0414807
0.0406258
0.0397199
0.0388165
0.037961
0.0371894
0.0365284
0.035995
0.0355977
0.0353378
0.0352101
0.0352022
0.0352915
0.0354574
0.0356654
0.0359064
0.0361786
0.0364792
0.0368043
0.0371462
0.0408692
0.0415374
0.0418389
0.041819
0.0415275
0.0410182
0.0403475
0.0395714
0.0387425
0.0379076
0.0371058
0.0363676
0.0357152
0.0351626
0.0347168
0.0343796
0.034148
0.0340141
0.0339671
0.0339894
0.0340675
0.0341893
0.0343365
0.0344971
0.0346693
0.0382951
0.0393035
0.039954
0.0402787
0.0403152
0.0401062
0.039698
0.0391387
0.0384756
0.0377524
0.0370081
0.0362747
0.0355779
0.0349362
0.0343623
0.0338635
0.0334431
0.0331008
0.0328335
0.032635
0.0324981
0.0324145
0.032373
0.0323633
0.0323787
0.0351094
0.0364076
0.0373719
0.0380225
0.0383855
0.0384927
0.0383802
0.038087
0.0376525
0.0371151
0.0365101
0.0358688
0.0352172
0.0345763
0.0339621
0.0333861
0.0328562
0.0323768
0.03195
0.0315757
0.031252
0.0309757
0.0307422
0.0305466
0.0303846
0.0314226
0.0329176
0.034116
0.035027
0.0356662
0.0360551
0.0362201
0.0361914
0.0360009
0.0356804
0.0352602
0.0347684
0.0342295
0.0336644
0.0330905
0.0325212
0.0319671
0.0314356
0.0309321
0.0304599
0.0300207
0.0296149
0.0292419
0.0289006
0.0285905
0.0275631
0.0291051
0.0303996
0.0314443
0.0322471
0.0328218
0.0331865
0.0333629
0.0333753
0.0332486
0.0330074
0.0326752
0.0322735
0.0318214
0.0313353
0.0308291
0.030314
0.0297989
0.0292909
0.0287951
0.0283152
0.0278538
0.0274124
0.0269922
0.0265949
0.0238311
0.0252244
0.0264338
0.0274523
0.0282664
0.0288794
0.0293089
0.029572
0.0296868
0.0296725
0.0295479
0.0293314
0.0290403
0.0286904
0.0282958
0.0278688
0.0274197
0.0269572
0.0264885
0.0260191
0.0255535
0.0250951
0.0246465
0.0242097
0.0237876
0.0198098
0.0208262
0.0216966
0.0224148
0.0229895
0.0234256
0.0237327
0.0239218
0.0240045
0.0239927
0.0238986
0.0237338
0.0235099
0.0232374
0.0229258
0.0225839
0.0222192
0.0218383
0.0214466
0.0210487
0.0206486
0.0202492
0.019853
0.0194623
0.0190796
0.00985116
0.0102622
0.0106195
0.0109171
0.0111599
0.0113513
0.0114942
0.0115919
0.0116478
0.0116655
0.0116486
0.011601
0.0115263
0.0114281
0.0113101
0.0111753
0.0110268
0.0108675
0.0106997
0.0105258
0.0103477
0.0101671
0.00998546
0.009804
0.00962385
0.000477708
0.000509395
0.00182373
0.0022611
0.00256996
0.00259142
0.00302029
0.00311137
0.00346645
0.00380055
0.00416029
0.00470571
0.00524375
0.00561655
0.00608028
0.00739795
0.00758643
0.00783866
0.0111027
0.0108708
0.0107723
0.0165287
0.0158339
0.0153112
0.0223677
0.021487
0.0207201
0.0277713
0.0269396
0.026138
0.0325886
0.0319285
0.0312315
0.0367888
0.0363783
0.0358919
0.0401448
0.0400305
0.0398259
0.0423685
0.0425267
0.0426055
0.0431054
0.0434892
0.0438214
0.0422318
0.0427259
0.043195
0.0401278
0.0405846
0.0410418
0.0374675
0.0377943
0.038131
0.0348343
0.0350062
0.0351876
0.0324102
0.0324554
0.0325127
0.0302636
0.0301635
0.03008
0.0283362
0.0281041
0.0278889
0.0262576
0.0259389
0.0256336
0.0234232
0.0230722
0.0227304
0.0187469
0.0184226
0.0181043
0.00946714
0.00931301
0.00916144
0.000114057
0.000238875
0.000383309
0.000508033
0.000620371
0.000721252
0.000814539
0.000901874
0.000984377
0.00106279
0.00113762
0.00120926
0.00127804
0.00134423
0.00140808
0.00146981
0.00152963
0.00158776
0.00164439
0.00169972
0.00175396
0.0018073
0.00185994
0.00191209
0.00196396
0.00201576
0.00206771
0.00212005
0.00217301
0.00222685
0.00228184
0.00233829
0.00239651
0.00245687
0.00251978
0.00258571
0.00265522
0.00272897
0.00280777
0.0028926
0.00298419
0.00308016
0.00318061
0.00328567
0.00339549
0.00351037
0.00363056
0.0037563
0.00388777
0.0040251
0.00416837
0.00431756
0.00447253
0.00463296
0.00479831
0.00496772
0.0051399
0.00531295
0.00548417
0.00564976
0.00580445
0.00594105
0.00604996
0.00611926
0.00613766
0.00609705
0.00599734
0.00583815
0.00561648
0.00532164
0.00495494
0.00450748
0.00399738
0.00345511
0.00291334
0.00244499
0.00201751
0.00161124
0.00120126
0.000719213
0.000389504
0.000744241
0.0009518
0.00113784
0.00134063
0.00155667
0.00177446
0.00199263
0.00220881
0.00242108
0.00262796
0.00282842
0.00302191
0.00320823
0.00338739
0.00355961
0.00372517
0.00388444
0.00403782
0.00418573
0.00432862
0.00446696
0.00460123
0.0047319
0.00485948
0.00498447
0.0051074
0.00522879
0.00534917
0.00546911
0.00558916
0.0057099
0.0058319
0.00595578
0.00608213
0.00621159
0.00634479
0.00648238
0.00662489
0.00677303
0.00692807
0.00709343
0.00726709
0.00744908
0.00763984
0.00783993
0.00804995
0.00827043
0.0085019
0.00874477
0.00899939
0.0092659
0.00954424
0.00983401
0.0101343
0.0104438
0.0107599
0.0110793
0.0113968
0.0117052
0.0119944
0.0122502
0.0124544
0.0125861
0.0126264
0.0125715
0.0123871
0.0120525
0.0115517
0.0108254
0.00996266
0.00896422
0.00790074
0.00682291
0.00574028
0.00465066
0.00362937
0.0027444
0.00201581
0.00104587
0.000582411
0.00112305
0.00138078
0.00164376
0.00195027
0.0022809
0.00261832
0.00295395
0.00328135
0.00359683
0.00389855
0.00418603
0.00445958
0.00471992
0.00496792
0.00520444
0.00543031
0.00564627
0.00585299
0.0060511
0.00624116
0.00642373
0.00659933
0.00676849
0.00693173
0.00708961
0.00724266
0.00739145
0.00753657
0.00767863
0.00781825
0.00795609
0.00809284
0.00822919
0.00836588
0.00850366
0.00864334
0.00878571
0.00893157
0.00908171
0.00923695
0.0093989
0.00957015
0.00974973
0.00993788
0.0101352
0.0103424
0.0105602
0.0107892
0.0110301
0.0112832
0.0115487
0.0118265
0.0121161
0.0124162
0.0127251
0.0130398
0.0133561
0.013668
0.0139677
0.0142447
0.0144854
0.0146727
0.0147854
0.0147953
0.014689
0.0144443
0.0140385
0.0134487
0.0126582
0.0116634
0.0104457
0.00915639
0.00784142
0.00658311
0.00537659
0.00424157
0.00319858
0.00228332
0.00113006
0.000714015
0.00141692
0.00175008
0.00209798
0.00249793
0.00292274
0.00335065
0.00376848
0.00416906
0.00454949
0.00490947
0.00525012
0.00557311
0.00588018
0.00617289
0.00645253
0.00672014
0.00697653
0.00722233
0.00745807
0.0076842
0.00790112
0.00810921
0.00830886
0.00850047
0.00868443
0.0088612
0.00903124
0.00919505
0.00935315
0.00950611
0.00965456
0.00979913
0.00994051
0.0100794
0.0102167
0.0103531
0.0104894
0.0106267
0.0107657
0.0109074
0.0110527
0.0112043
0.0113633
0.0115293
0.0117028
0.0118846
0.0120752
0.0122754
0.0124857
0.0127064
0.0129376
0.0131791
0.0134299
0.0136888
0.0139534
0.0142206
0.0144859
0.0147432
0.014985
0.0152016
0.0153816
0.0155107
0.0155722
0.0155419
0.0153985
0.0151277
0.0147117
0.0141305
0.0133677
0.0124154
0.0112478
0.00989938
0.0084102
0.00699529
0.00568481
0.00449805
0.00339037
0.00235373
0.00110957
0.000810657
0.00164201
0.00207149
0.00250698
0.002988
0.00348557
0.00397598
0.00444645
0.00489175
0.00531135
0.00570713
0.00608186
0.00643834
0.00677896
0.00710558
0.00741956
0.00772183
0.00801301
0.00829349
0.00856351
0.00882325
0.00907286
0.00931246
0.00954221
0.00976229
0.00997292
0.0101744
0.0103669
0.0105509
0.0107268
0.0108951
0.0110561
0.0112105
0.0113589
0.011502
0.0116405
0.0117752
0.0119069
0.0120366
0.0121652
0.0122936
0.0124231
0.0125545
0.0126915
0.0128337
0.0129814
0.0131353
0.013296
0.0134642
0.0136404
0.0138248
0.0140176
0.0142182
0.0144258
0.0146387
0.0148547
0.0150704
0.0152813
0.0154816
0.0156639
0.0158194
0.0159373
0.0160054
0.0160093
0.0159338
0.0157646
0.0154894
0.0150961
0.0145674
0.0138898
0.0130333
0.0119694
0.0106873
0.00921435
0.00765229
0.00611622
0.00476188
0.00353919
0.0023704
0.00104383
0.000882001
0.00182625
0.00235751
0.00287516
0.00342221
0.00397121
0.00450074
0.00500125
0.00547108
0.00591266
0.00632996
0.00672712
0.00710765
0.00747423
0.00782874
0.00817232
0.00850561
0.00882887
0.00914211
0.00944523
0.00973804
0.0100204
0.010292
0.0105529
0.0108029
0.0110421
0.0112705
0.0114882
0.0116954
0.0118924
0.0120795
0.012257
0.0124254
0.0125852
0.012737
0.0128814
0.0130192
0.0131512
0.0132783
0.0134015
0.0135219
0.0136406
0.0137587
0.013878
0.0140012
0.0141283
0.0142597
0.0143962
0.0145386
0.0146875
0.0148432
0.0150058
0.0151752
0.0153504
0.0155299
0.0157116
0.0158921
0.016067
0.0162306
0.0163757
0.0164937
0.0165741
0.016605
0.0165731
0.0164649
0.0162695
0.0159797
0.0155914
0.0151008
0.0145003
0.0137677
0.0128604
0.0117226
0.0103101
0.00865324
0.00690225
0.00526442
0.00380779
0.00242653
0.000960957
0.000939435
0.00198687
0.00261554
0.00320456
0.00380111
0.0043823
0.00493202
0.00544575
0.00592588
0.00637769
0.00680696
0.00721877
0.00761704
0.00800448
0.00838273
0.00875259
0.00911428
0.00946763
0.0098122
0.0101475
0.0104729
0.0107878
0.0110919
0.0113847
0.0116659
0.0119351
0.0121924
0.0124376
0.0126708
0.0128919
0.0131013
0.013299
0.0134855
0.0136611
0.0138263
0.0139817
0.0141279
0.0142658
0.0143962
0.0145202
0.0146387
0.0147531
0.0148645
0.0149743
0.0150858
0.0151996
0.0153165
0.0154374
0.0155633
0.0156949
0.0158331
0.0159781
0.0161301
0.0162885
0.0164521
0.0166192
0.0167866
0.0169502
0.0171045
0.0172423
0.0173548
0.0174313
0.0174594
0.0174255
0.0173155
0.0171167
0.0168209
0.0164264
0.015937
0.0153595
0.014694
0.0139154
0.0129541
0.0116928
0.01004
0.00805997
0.00601438
0.00421518
0.00255382
0.000911982
0.000991407
0.0021351
0.00285145
0.00349841
0.00412804
0.00472468
0.00527953
0.00579378
0.00627381
0.00672741
0.00716177
0.00758259
0.00799392
0.00839827
0.00879691
0.00919022
0.00957791
0.00995931
0.0103336
0.0106997
0.0110567
0.0114037
0.01174
0.0120647
0.0123774
0.0126776
0.0129649
0.0132391
0.0135
0.0137476
0.0139818
0.0142029
0.0144108
0.014606
0.0147887
0.0149595
0.0151189
0.0152678
0.0154069
0.0155372
0.0156601
0.0157766
0.0158881
0.0159962
0.0161026
0.0162105
0.0163206
0.0164341
0.0165521
0.016676
0.0168067
0.0169452
0.0170919
0.0172469
0.0174096
0.0175786
0.0177516
0.0179247
0.018093
0.0182496
0.0183855
0.0184898
0.0185493
0.018549
0.0184722
0.0183025
0.0180257
0.0176328
0.0171281
0.0165238
0.0158424
0.0150954
0.0142513
0.013188
0.0117012
0.00963722
0.00714226
0.00480729
0.00275984
0.000893339
0.00104399
0.00228053
0.00307259
0.00376278
0.00440973
0.00500727
0.00555496
0.00605976
0.00653173
0.00698074
0.00741499
0.00784046
0.00826109
0.00867903
0.00909509
0.0095091
0.00992029
0.0103275
0.0107293
0.0111245
0.0115115
0.0118893
0.0122566
0.0126126
0.0129564
0.0132874
0.0136049
0.0139087
0.0141983
0.0144736
0.0147344
0.0149808
0.0152126
0.0154302
0.0156337
0.0158235
0.0160001
0.0161642
0.0163166
0.0164582
0.0165904
0.0167144
0.0168317
0.0169438
0.0170524
0.0171609
0.0172709
0.0173836
0.0175008
0.0176241
0.0177549
0.0178948
0.0180447
0.0182053
0.0183768
0.0185585
0.0187487
0.0189446
0.0191418
0.019334
0.0195129
0.0196678
0.0197851
0.0198486
0.0198397
0.0197378
0.0195234
0.01917
0.0186761
0.0180426
0.0172941
0.0164698
0.0156011
0.0146432
0.0134046
0.0115252
0.00885441
0.00578646
0.0031536
0.000916835
0.00110286
0.00243415
0.0032893
0.0040073
0.00465623
0.00524152
0.00577151
0.0062587
0.00671628
0.00715573
0.00758579
0.00801242
0.0084392
0.00886776
0.00929837
0.00973031
0.0101623
0.0105926
0.0110195
0.0114413
0.0118561
0.0122626
0.0126593
0.0130449
0.0134186
0.0137793
0.0141265
0.0144596
0.014778
0.0150814
0.0153696
0.0156424
0.0158998
0.0161417
0.0163683
0.0165799
0.0167768
0.0169595
0.0171289
0.017286
0.0174318
0.017568
0.0176959
0.0178172
0.0179336
0.018048
0.018163
0.0182804
0.018402
0.0185299
0.0186661
0.0188124
0.0189706
0.0191419
0.0193273
0.0195268
0.0197397
0.0199642
0.0201969
0.0204327
0.0206641
0.0208814
0.0210717
0.0212189
0.0213035
0.0213024
0.0211892
0.0209366
0.020521
0.0199189
0.0191369
0.0182003
0.0171711
0.0161075
0.0149574
0.0134081
0.0109438
0.00738352
0.00391013
0.00101629
0.00117765
0.00261218
0.00351585
0.00424536
0.00488103
0.00544154
0.00594432
0.00640689
0.00684493
0.00727082
0.0076934
0.00811825
0.00854834
0.0089847
0.00942696
0.00987383
0.0103235
0.0107739
0.0112229
0.0116683
0.0121081
0.0125406
0.0129642
0.0133773
0.0137789
0.0141678
0.0145432
0.0149045
0.015251
0.0155822
0.0158978
0.0161975
0.0164811
0.0167485
0.0169998
0.0172351
0.0174546
0.0176587
0.0178482
0.0180239
0.0181871
0.0183392
0.0184818
0.0186166
0.0187454
0.0188703
0.0189948
0.0191211
0.0192513
0.0193877
0.0195327
0.0196887
0.0198579
0.0200422
0.0202433
0.0204621
0.0206988
0.0209527
0.0212216
0.0215016
0.0217869
0.0220691
0.022337
0.022576
0.0227675
0.0228889
0.0229125
0.0228066
0.0225357
0.0220632
0.021359
0.020402
0.0192229
0.0179041
0.016533
0.0150689
0.0130642
0.00982149
0.00523412
0.00123666
0.00127906
0.00283606
0.00376924
0.0044955
0.00510222
0.00562525
0.00609152
0.0065231
0.00693711
0.00734609
0.00775833
0.00817868
0.00860932
0.00905052
0.00950127
0.00995976
0.0104237
0.0108906
0.0113581
0.0118237
0.0122851
0.0127404
0.0131878
0.0136257
0.0140526
0.0144675
0.0148692
0.0152571
0.0156303
0.0159884
0.0163307
0.016657
0.0169669
0.0172602
0.0175369
0.0177971
0.0180408
0.0182683
0.0184802
0.0186773
0.0188609
0.0190322
0.019193
0.0193449
0.0194897
0.0196294
0.0197674
0.0199062
0.0200482
0.0201961
0.0203525
0.0205202
0.0207018
0.0208999
0.0211168
0.0213541
0.0216131
0.0218941
0.022196
0.0225166
0.0228516
0.0231946
0.0235364
0.0238647
0.0241637
0.0244129
0.0245871
0.0246557
0.0245807
0.0243171
0.023813
0.0230155
0.0218837
0.0204108
0.0186777
0.0168423
0.0148666
0.0121386
0.00744959
0.00160187
0.00143478
0.00312237
0.00406258
0.00477141
0.00534051
0.00581478
0.00623499
0.00662952
0.00701545
0.00740439
0.00780352
0.00821653
0.00864465
0.00908735
0.00954299
0.0100092
0.0104835
0.0109629
0.0114448
0.0119265
0.0124057
0.0128802
0.0133479
0.0138072
0.0142566
0.0146947
0.0151204
0.0155327
0.0159309
0.0163143
0.0166821
0.017034
0.0173696
0.0176886
0.0179908
0.0182762
0.0185449
0.0187971
0.0190333
0.0192541
0.0194606
0.0196541
0.0198361
0.0200083
0.0201725
0.0203304
0.0204853
0.0206397
0.0207965
0.0209583
0.0211282
0.021309
0.0215038
0.0217157
0.0219475
0.0222015
0.0224798
0.0227838
0.0231136
0.0234684
0.0238457
0.024241
0.0246474
0.0250555
0.0254525
0.0258216
0.026142
0.0263872
0.026524
0.0265106
0.0262939
0.0258064
0.0249664
0.023688
0.0219074
0.0196549
0.0171121
0.0143024
0.0106336
0.00232892
0.00165715
0.00357282
0.00444546
0.00509485
0.00561051
0.00603213
0.00639922
0.00675206
0.00710632
0.0074722
0.00785515
0.00825751
0.00867945
0.00911965
0.00957589
0.0100455
0.0105254
0.0110127
0.0115045
0.0119979
0.0124906
0.0129801
0.0134644
0.0139416
0.01441
0.0148683
0.0153151
0.0157495
0.0161704
0.016577
0.0169687
0.0173448
0.0177049
0.0180485
0.0183756
0.0186859
0.0189796
0.019257
0.0195185
0.0197648
0.0199966
0.0202146
0.0204205
0.0206157
0.0208021
0.0209814
0.0211559
0.0213288
0.0215029
0.0216809
0.0218659
0.022061
0.0222696
0.022495
0.0227403
0.0230088
0.023303
0.0236251
0.0239767
0.024358
0.0247683
0.025205
0.0256636
0.0261373
0.0266165
0.0270886
0.0275373
0.0279422
0.0282777
0.0285111
0.0286003
0.0284891
0.0281004
0.0273281
0.0260284
0.0240388
0.021261
0.0177773
0.0138761
0.00932024
0.00226821
0.00410854
0.00490519
0.00547175
0.00591614
0.00628332
0.00660685
0.00691709
0.00723855
0.00757912
0.00794283
0.00833074
0.00874212
0.00917503
0.00962685
0.0100946
0.010575
0.0110651
0.0115617
0.0120621
0.0125636
0.0130637
0.0135604
0.0140516
0.0145355
0.0150105
0.0154754
0.0159289
0.0163699
0.0167975
0.0172108
0.0176091
0.0179918
0.0183585
0.0187089
0.0190429
0.0193608
0.0196634
0.0199511
0.020224
0.0204823
0.0207268
0.0209585
0.021179
0.0213898
0.0215927
0.0217895
0.0219835
0.0221771
0.0223733
0.022575
0.0227855
0.0230083
0.0232467
0.0235045
0.023785
0.0240914
0.0244268
0.0247935
0.0251932
0.0256263
0.0260923
0.0265886
0.0271112
0.0276532
0.0282057
0.0287569
0.0292921
0.029793
0.030237
0.0305958
0.0308331
0.0308999
0.030728
0.0302171
0.0292177
0.0275186
0.0248746
0.021222
0.0170248
0.00322912
0.0047308
0.00542555
0.00589203
0.00626196