/*--------------------------------*- C++ -*----------------------------------*\
| =========                 |                                                 |
| \\      /  F ield         | OpenFOAM: The Open Source CFD Toolbox           |
|  \\    /   O peration     | Version:  v2012                                 |
|   \\  /    A nd           | Website:  www.openfoam.com                      |
|    \\/     M anipulation  |                                                 |
\*---------------------------------------------------------------------------*/
FoamFile
{
    version     2.0;
    format      ascii;
    class       volScalarField;
    location    "501";
    object      nut;
}
// * * * * * * * * * * * * * * * * * * * * * * * * * * * * * * * * * * * * * //

dimensions      [0 2 -1 0 0 0 0];


internalField   nonuniform List<scalar> 
6556
(
0.00324058
0.0114407
0.013759
0.0141607
0.0140652
0.0140652
0.0141607
0.013759
0.0114407
0.00324058
0.0023991
0.00932409
0.0125646
0.0134862
0.0135935
0.0135935
0.0134862
0.0125646
0.00932409
0.0023991
0.00190224
0.00798745
0.0114914
0.0127908
0.01311
0.01311
0.0127909
0.0114914
0.00798745
0.00190224
0.00158231
0.00705293
0.0105741
0.0121127
0.0126038
0.0126038
0.0121127
0.0105741
0.00705294
0.00158231
0.00136143
0.0063547
0.00979736
0.0114717
0.0120858
0.0120858
0.0114717
0.00979737
0.00635471
0.00136143
0.00120024
0.00580749
0.00913546
0.0108756
0.0115699
0.0115699
0.0108756
0.00913548
0.00580751
0.00120024
0.00107731
0.00536293
0.00856499
0.0103254
0.011067
0.011067
0.0103254
0.00856501
0.00536295
0.00107731
0.000980205
0.00499159
0.00806713
0.00981896
0.0105844
0.0105844
0.00981899
0.00806718
0.00499164
0.000980207
0.000901304
0.00467463
0.00762753
0.00935299
0.0101261
0.0101261
0.00935304
0.0076276
0.00467469
0.000901307
0.000835711
0.0043994
0.00723533
0.00892385
0.00969379
0.00969382
0.00892392
0.00723544
0.0043995
0.000835716
0.000780151
0.00415712
0.00688235
0.00852799
0.00928788
0.00928792
0.0085281
0.00688251
0.00415726
0.000780158
0.000732356
0.00394146
0.00656232
0.00816214
0.0089077
0.00890776
0.00816231
0.00656254
0.00394167
0.000732366
0.000690706
0.00374776
0.00627035
0.00782336
0.00855207
0.00855217
0.00782361
0.00627069
0.00374807
0.00069072
0.000654014
0.00357247
0.0060026
0.007509
0.00821953
0.00821968
0.00750937
0.00600311
0.00357293
0.000654035
0.00062139
0.00341284
0.00575597
0.00721669
0.00790851
0.00790873
0.00721724
0.00575671
0.00341349
0.00062142
0.000592151
0.00326666
0.00552791
0.00694435
0.00761742
0.00761775
0.00694517
0.00552898
0.00326759
0.000592193
0.000565765
0.00313215
0.00531627
0.0066901
0.00734473
0.0073452
0.00669132
0.00531781
0.00313343
0.000565822
0.000541809
0.00300784
0.00511925
0.00645225
0.00708896
0.00708963
0.00645405
0.00512137
0.00300941
0.000541885
0.000519943
0.00289245
0.00493526
0.00622927
0.00684872
0.00684969
0.00623188
0.00493827
0.00289424
0.000520038
0.000499887
0.0027849
0.00476288
0.00601976
0.00662272
0.00662414
0.00602357
0.004767
0.0027852
0.000499992
0.000481411
0.00268423
0.00460087
0.00582244
0.00640976
0.00641196
0.00582888
0.00461237
0.00271521
0.000555198
0.00046432
0.00258958
0.00444809
0.00563612
0.00620872
0.00621221
0.00564726
0.00447283
0.00266083
0.000629245
0.000448449
0.00250022
0.00430351
0.00545974
0.00601861
0.00602402
0.00547796
0.00434718
0.00262458
0.000721897
0.000433659
0.00241551
0.00416625
0.00529233
0.00583847
0.0058464
0.00531965
0.00423208
0.00262014
0.000839594
0.000419826
0.00233488
0.00403549
0.00513301
0.00566738
0.00567812
0.0051697
0.0041323
0.00264414
0.000988868
0.000406847
0.00225782
0.00391049
0.00498095
0.00550453
0.00551864
0.0050273
0.00405105
0.00268397
0.00116964
0.000394628
0.00218386
0.00379057
0.00483542
0.0053493
0.00536801
0.0048984
0.00397996
0.00272729
0.00137673
0.000383088
0.00211255
0.00367508
0.00469572
0.0052011
0.005226
0.00478153
0.00392039
0.00277311
0.00160167
0.000372152
0.00204346
0.00356341
0.00456121
0.0050594
0.00509221
0.00467553
0.00387144
0.00282488
0.00182874
0.000361755
0.00197623
0.00345494
0.00443126
0.00492366
0.00496616
0.00457944
0.00383244
0.00288395
0.00204625
0.000351838
0.00191048
0.00334913
0.00430526
0.00479334
0.0048473
0.00449241
0.0038028
0.00295005
0.00225183
0.000342344
0.00184584
0.0032454
0.00418262
0.00466787
0.00473507
0.00441364
0.00378173
0.00302047
0.00244353
0.000333222
0.00178198
0.00314322
0.00406274
0.00454666
0.00462882
0.00434232
0.00376815
0.00309343
0.00262008
0.000324425
0.00171855
0.00304202
0.00394497
0.00442909
0.00452788
0.00427759
0.00376093
0.00316715
0.00278076
0.000315905
0.00165525
0.00294122
0.00382867
0.00431446
0.00443151
0.00421853
0.00375884
0.0032398
0.00292513
0.00030762
0.00159177
0.00284027
0.00371312
0.00420203
0.00433888
0.00416414
0.00376052
0.00330969
0.00305299
0.000299527
0.00152786
0.00273858
0.0035976
0.00409098
0.00424908
0.00411331
0.00376457
0.00337537
0.00316443
0.000291583
0.00146332
0.00263561
0.00348132
0.00398042
0.00416109
0.00406485
0.00376954
0.00343566
0.0032599
0.00028375
0.00139797
0.00253084
0.0033635
0.00386938
0.00407381
0.00401746
0.00377401
0.00348976
0.00334031
0.000275985
0.00133171
0.00242382
0.00324334
0.00375682
0.00398599
0.00396975
0.00377656
0.00353717
0.00340707
0.00026825
0.00126456
0.00231419
0.00312003
0.00364161
0.00389628
0.0039202
0.00377581
0.00357767
0.00346207
0.000260504
0.00119661
0.00220168
0.0029928
0.00352255
0.00380316
0.00386715
0.00377033
0.00361112
0.00350744
0.000252706
0.00112802
0.00208616
0.00286092
0.00339834
0.00370493
0.00380874
0.00375853
0.00363724
0.00354529
0.000244817
0.00105903
0.00196762
0.00272369
0.00326762
0.0035997
0.00374285
0.00373854
0.00365533
0.00357714
0.000236791
0.000989895
0.00184615
0.0025805
0.00312894
0.00348534
0.00366696
0.00370798
0.00366391
0.00360341
0.000228581
0.000920877
0.00172196
0.00243081
0.00298078
0.00335948
0.00357816
0.00366382
0.00366043
0.00362286
0.000220133
0.000852217
0.0015953
0.00227418
0.00282165
0.00321955
0.00347308
0.0036023
0.00364106
0.00363213
0.000211383
0.000784111
0.00146649
0.00211033
0.0026501
0.00306288
0.00334798
0.00351891
0.00360068
0.00362567
0.00020225
0.000716705
0.00133588
0.00193914
0.00246495
0.00288691
0.00319901
0.00340863
0.00353313
0.00359603
0.000192628
0.000650099
0.00120389
0.00176082
0.00226548
0.00268958
0.00302262
0.00326645
0.00343174
0.00353451
0.000182367
0.000584361
0.00107109
0.00157612
0.00205185
0.00246987
0.00281629
0.00308814
0.00329026
0.00343236
0.000171241
0.000519538
0.000938531
0.00138674
0.00182575
0.00222873
0.00257961
0.00287147
0.00310421
0.00328216
0.000158882
0.000455635
0.000807918
0.00119615
0.00159155
0.00197038
0.00231577
0.00261785
0.00287247
0.00307893
0.000109059
0.000397769
0.000684467
0.00101095
0.00135736
0.00170356
0.00203294
0.00233363
0.00259739
0.00282038
0.000108631
0.000353194
0.000581147
0.000845628
0.0011381
0.00144319
0.00174505
0.00202928
0.0022876
0.00251553
0.000106312
0.000321903
0.000510121
0.000719507
0.000956304
0.00121182
0.00147147
0.00172505
0.00196456
0.00218411
7.75818e-05
0.000309465
0.000472223
0.000642055
0.000829695
0.00103096
0.00124138
0.00145385
0.00166127
0.00185745
6.68866e-05
0.00029391
0.000456947
0.000602543
0.000733552
0.000859848
0.000996464
0.00114147
0.00128796
0.00143147
6.52413e-05
0.000222901
0.000428987
0.000556865
0.000676496
0.000707335
0.000768525
0.000861399
0.000967777
0.00107679
6.92299e-05
0.000115433
0.000143372
0.000175161
0.000205108
0.000225524
0.000240754
0.000253291
0.000263562
0.000271929
0.000143535
0.000163367
0.000165845
0.000171004
0.000175167
0.000177708
0.000178483
0.000177364
0.000173932
0.000169783
0.000164848
0.000159112
0.00015264
0.000145687
0.0001384
0.000130861
0.000122974
0.000115655
0.000108587
0.000101499
9.41556e-05
8.62581e-05
7.73143e-05
6.6312e-05
4.25641e-05
0.000256444
0.00053135
0.000802495
0.000949412
0.00102814
0.00107514
0.00109949
0.00110382
0.00108701
0.00105583
0.00101662
0.000969595
0.000915533
0.000857302
0.000796772
0.000734606
0.000668471
0.000578037
0.000480719
0.000388022
0.00030657
0.000239513
0.000188374
0.00014802
5.09652e-05
0.000403946
0.000666815
0.00103754
0.0013389
0.00151633
0.00161886
0.00167371
0.00169331
0.00155958
0.00149434
0.00152767
0.00152828
0.00145529
0.00137647
0.00129353
0.00120602
0.0011094
0.000985828
0.00083924
0.000682428
0.000530618
0.000397586
0.000292003
0.000206762
5.5038e-05
0.000666344
0.000699553
0.0010589
0.00140094
0.00164938
0.00178795
0.0018589
0.00188481
0.00177498
0.00168615
0.00168757
0.00171507
0.00164346
0.00157029
0.00149624
0.00141841
0.00132962
0.00121404
0.00106686
0.000893726
0.000708673
0.000531538
0.000379713
0.000248378
5.75507e-05
0.00101494
0.000877575
0.00119742
0.00141933
0.00166378
0.00182429
0.00189944
0.00192169
0.00190593
0.00186148
0.00179707
0.00172297
0.00164966
0.00158346
0.0015243
0.00146636
0.00139909
0.0013063
0.00117833
0.00101471
0.000824823
0.000628021
0.00044559
0.000275451
5.76538e-05
0.00128092
0.00119862
0.0013915
0.00152437
0.00168836
0.00182918
0.00190286
0.00191771
0.00189038
0.00183295
0.00175523
0.00166806
0.00158576
0.00151987
0.00147153
0.00143249
0.00138777
0.00131918
0.00121396
0.00106814
0.000887181
0.000687164
0.000488415
0.000290024
5.68383e-05
0.00150151
0.00160345
0.00162163
0.00167977
0.00178321
0.00186502
0.00190964
0.00191324
0.00187355
0.00180167
0.00170822
0.00160515
0.00150833
0.00143386
0.00138878
0.00136391
0.00133868
0.00129072
0.00120507
0.00107696
0.000909583
0.000715243
0.000510593
0.000294619
5.54828e-05
0.00171561
0.00185383
0.001866
0.00188089
0.00192678
0.00196419
0.0019679
0.00193567
0.0018722
0.00178419
0.00167417
0.00155311
0.00143895
0.00135035
0.00129896
0.00128064
0.00127056
0.00123917
0.00116877
0.00105614
0.000903408
0.000719289
0.000515826
0.00029156
5.37324e-05
0.00192477
0.0020829
0.00211415
0.00210985
0.0021065
0.00210232
0.00207158
0.00200848
0.00191462
0.00179662
0.00166202
0.00151976
0.00138501
0.00127771
0.00121151
0.00118908
0.00118503
0.00116558
0.00110876
0.00101152
0.000874956
0.000704445
0.000507291
0.000281967
5.17591e-05
0.00212792
0.00230123
0.00235683
0.00234571
0.00230979
0.00227009
0.0022081
0.00211657
0.00199435
0.00184714
0.00168111
0.00151024
0.00135011
0.00121961
0.00113125
0.00109231
0.00108668
0.00107445
0.00102854
0.000945854
0.000826087
0.000671207
0.000484012
0.000263974
4.99442e-05
0.00232393
0.00250948
0.00258988
0.00258331
0.00252832
0.00245936
0.00236999
0.00225429
0.00210748
0.00193063
0.0017316
0.00152677
0.00133597
0.00117775
0.00106322
0.000996753
0.00097746
0.000967577
0.00093294
0.000864139
0.000761002
0.000622796
0.000449031
0.000241389
4.81536e-05
0.00251174
0.00270639
0.0028104
0.00281836
0.00275999
0.00266317
0.00255089
0.00241617
0.00224965
0.00204626
0.00181594
0.00157352
0.00134666
0.00115744
0.001014
0.000915341
0.000867037
0.000852194
0.000826973
0.000770497
0.000683369
0.000562935
0.000406674
0.000217951
4.63187e-05
0.00268891
0.00288945
0.00301501
0.00304002
0.00298153
0.00287111
0.00274414
0.0025973
0.00241844
0.00219679
0.00193611
0.00165814
0.00139184
0.00116752
0.000993732
0.000827903
0.000773963
0.000735153
0.000715576
0.000669704
0.000597885
0.000495214
0.0003628
0.000198375
4.4453e-05
0.0028527
0.00305667
0.00320072
0.00324288
0.00319119
0.00307868
0.00294426
0.00279273
0.00261019
0.00238016
0.00210107
0.001792
0.00148535
0.00122024
0.00101187
0.000788826
0.000660715
0.000640191
0.000600809
0.000568053
0.000510955
0.000423032
0.000309024
0.000186759
4.27714e-05
0.00300046
0.00319921
0.00336368
0.00342377
0.00338669
0.00328407
0.00314607
0.00299723
0.002821
0.00259509
0.00231167
0.00198468
0.0016443
0.00133498
0.00108201
0.000884422
0.000616388
0.000503284
0.00049476
0.000478475
0.000433378
0.000358897
0.00023996
0.000147515
5.78368e-05
0.00313013
0.00332202
0.0034799
0.00357912
0.00356059
0.00346936
0.00334207
0.00320459
0.00304518
0.0028371
0.00256708
0.00224201
0.00188459
0.00153899
0.00123429
0.000984052
0.000786015
0.00051778
0.000390003
0.0003367
0.000331953
0.00029234
0.000246792
0.000196867
0.000126398
0.00324064
0.00343692
0.00360261
0.00370756
0.00370901
0.00363642
0.00353086
0.00340929
0.00327594
0.00298815
0.00274333
0.00256155
0.00221586
0.00185794
0.00151321
0.00120306
0.000938996
0.000727953
0.000560167
0.000395389
0.000322176
0.0002909
0.000279491
0.000256266
0.000202591
0.00333145
0.00351843
0.00369708
0.00380655
0.0038299
0.0037805
0.00369671
0.00360414
0.00350276
0.00325358
0.00295984
0.00273042
0.0025549
0.00229439
0.00194838
0.00160453
0.00127897
0.000990211
0.000753272
0.000578549
0.000465155
0.000403223
0.000378366
0.000371635
0.000380279
0.0034031
0.0035766
0.00375407
0.00387457
0.00392056
0.00389811
0.00383791
0.00377494
0.00371212
0.0036351
0.00340084
0.00314283
0.00291959
0.00271422
0.00250459
0.00218565
0.00185132
0.00152287
0.00122041
0.000965522
0.000775979
0.000657369
0.000600943
0.000584366
0.000590264
0.00345725
0.00361291
0.00378436
0.00391299
0.00397867
0.0039838
0.00394951
0.00391184
0.00388569
0.00385848
0.00381471
0.00373062
0.0035184
0.00329316
0.00305401
0.00278368
0.00248413
0.00216894
0.00185421
0.00155377
0.00128575
0.00104879
0.000855105
0.000737311
0.000669917
0.00349658
0.00363019
0.00379031
0.00392251
0.00400346
0.00403431
0.00402887
0.00401247
0.00401225
0.00402621
0.00404134
0.00403547
0.00398469
0.00388299
0.00374159
0.00357078
0.00328253
0.00293935
0.00257299
0.00221923
0.00190462
0.00163354
0.0014069
0.00124919
0.0011703
0.00352466
0.00363267
0.00377591
0.00390602
0.00399802
0.00404866
0.00406922
0.00407719
0.00409322
0.00413049
0.00418691
0.00424351
0.00427256
0.00426164
0.0042145
0.00413825
0.00403963
0.00386127
0.00352987
0.00319566
0.00289595
0.00263553
0.00241075
0.00223717
0.00213233
0.00354554
0.00362572
0.0037468
0.00386837
0.00396547
0.00403082
0.0040707
0.00409976
0.0041331
0.00418198
0.00425438
0.00434377
0.00442858
0.00448947
0.00452107
0.00452487
0.0045045
0.0044644
0.00432278
0.00407986
0.00385903
0.00366711
0.00349684
0.00334707
0.00323564
0.00356315
0.00361533
0.00371013
0.00381651
0.00391159
0.00398546
0.00403973
0.00408387
0.00413029
0.00418933
0.00426766
0.00436503
0.00447111
0.00457283
0.00466043
0.00472638
0.00476633
0.0047838
0.00467987
0.00455212
0.00444371
0.00434781
0.00425687
0.00416876
0.00408727
0.00358043
0.00360726
0.0036738
0.00375922
0.00384472
0.00391958
0.00398191
0.00403665
0.00409237
0.00415781
0.00423905
0.00433798
0.00445029
0.00456674
0.00467767
0.00477525
0.00475508
0.00468485
0.00462678
0.0045896
0.0045672
0.00455214
0.00453944
0.00452422
0.00450489
0.00359835
0.00360565
0.00364521
0.00370615
0.0037753
0.00384316
0.00390595
0.00396518
0.00402567
0.00409371
0.00417513
0.00427257
0.00438431
0.00450377
0.00462178
0.00456385
0.0044667
0.00439755
0.00436114
0.00435102
0.00436112
0.00438758
0.00444368
0.00445895
0.00449148
0.00361504
0.00361158
0.00362935
0.00366592
0.00371444
0.00376829
0.00382359
0.00387975
0.00393903
0.00400545
0.0040831
0.00417464
0.00427978
0.00439405
0.00442718
0.00428436
0.00416974
0.00409342
0.00405083
0.00403124
0.00403581
0.00406185
0.0041031
0.00415497
0.0042115
0.00362531
0.00362186
0.0036267
0.00364353
0.00367121
0.00370684
0.00374798
0.00379387
0.00384538
0.00390458
0.00397392
0.00405535
0.00414903
0.00425195
0.00423841
0.00404911
0.00390529
0.00380443
0.00373858
0.00370407
0.00369635
0.0037104
0.00374119
0.00378506
0.00383703
0.00362078
0.00362856
0.00363181
0.00363762
0.00364901
0.00366668
0.00369083
0.00372159
0.00375956
0.00380589
0.00386193
0.00392887
0.00400697
0.0040946
0.0041868
0.00395027
0.00376006
0.003628
0.0035349
0.00347244
0.0034369
0.00342469
0.00343186
0.00345405
0.00348853
0.00359075
0.00361971
0.00363303
0.0036388
0.00364241
0.00364776
0.00365716
0.00367215
0.003694
0.00372385
0.00376273
0.00381142
0.00387018
0.0039383
0.00401332
0.00403295
0.00379064
0.00360602
0.00347481
0.00338114
0.00331495
0.00327213
0.00324985
0.0032447
0.00325378
0.00352353
0.00358076
0.00361352
0.00362993
0.00363678
0.00363912
0.00364072
0.00364442
0.00365236
0.00366625
0.00368735
0.00371656
0.0037543
0.00380045
0.00385413
0.00391315
0.00397385
0.00379353
0.00360334
0.00346276
0.00335969
0.00328449
0.00323171
0.00319714
0.00317788
0.00340803
0.00349569
0.00355396
0.00359004
0.00361024
0.00361985
0.00362321
0.00362385
0.0036246
0.00362773
0.00363495
0.00364754
0.0036663
0.0036916
0.00372337
0.00376104
0.00380339
0.00384824
0.00389385
0.003766
0.00361002
0.00349085
0.00340218
0.0033365
0.00328933
0.00323367
0.00335101
0.00343731
0.00349817
0.00353888
0.00356424
0.00357848
0.00358525
0.00358761
0.00358815
0.00358893
0.00359159
0.00359732
0.00360695
0.00362093
0.00363942
0.00366227
0.00368898
0.00371881
0.0037504
0.00378291
0.00381566
0.00377365
0.00367033
0.00359041
0.00299716
0.00313972
0.00325231
0.00333876
0.00340306
0.0034491
0.00348052
0.00350067
0.00351251
0.0035186
0.00352117
0.00352201
0.00352261
0.00352408
0.00352727
0.00353276
0.00354089
0.0035518
0.00356547
0.00358165
0.00360001
0.00362017
0.00364142
0.00366316
0.00368503
0.00270443
0.00286435
0.00299748
0.00310597
0.00319238
0.00325952
0.00331021
0.00334721
0.00337313
0.00339031
0.00340085
0.0034066
0.0034091
0.00340962
0.00340922
0.00340871
0.00340871
0.00340967
0.00341192
0.00341564
0.0034209
0.00342768
0.00343587
0.0034453
0.00345574
0.00237285
0.00253889
0.00268274
0.00280509
0.00290724
0.00299089
0.00305799
0.0031106
0.00315076
0.00318043
0.00320145
0.00321549
0.003224
0.00322828
0.00322941
0.00322831
0.00322572
0.00322227
0.00321842
0.00321458
0.00321101
0.00320794
0.00320549
0.00320375
0.0032028
0.00203102
0.00218829
0.0023286
0.00245154
0.00255755
0.00264752
0.00272253
0.00278386
0.00283291
0.00287115
0.00289999
0.00292077
0.00293476
0.00294311
0.00294681
0.00294676
0.00294373
0.00293838
0.00293126
0.00292284
0.0029135
0.00290357
0.0028933
0.00288292
0.00287268
0.00156872
0.00170878
0.00185623
0.00201462
0.00213809
0.002218
0.00228535
0.00234099
0.00238586
0.00242094
0.00244725
0.00246581
0.00247758
0.00248348
0.00248437
0.00248103
0.00247415
0.00246436
0.0024522
0.00243815
0.00242263
0.002406
0.00238856
0.0023706
0.00235245
0.00118566
0.00130327
0.00140471
0.0014607
0.00150841
0.00154783
0.00157939
0.00160363
0.00162113
0.0016325
0.00163839
0.00163943
0.00163624
0.00162942
0.00161952
0.00160706
0.00159252
0.00157631
0.00155882
0.00154036
0.00152124
0.00150169
0.00148193
0.00146214
0.00144254
0.000278611
0.000284364
0.000289272
0.000293297
0.000296541
0.000299073
0.00030095
0.000302226
0.000302954
0.000303184
0.000302965
0.000302344
0.000301369
0.000300084
0.000298529
0.000296745
0.000294768
0.00029263
0.000290362
0.000287993
0.000285546
0.000283043
0.000280504
0.000277943
0.000275378
4.42736e-05
6.33554e-05
4.269e-05
0.000132068
9.53839e-05
0.000210683
0.000200597
0.000288052
0.000352048
0.000407243
0.00046183
0.000384797
0.000483659
0.000459182
0.000515797
0.000654907
0.000697283
0.000805559
0.00117098
0.00123131
0.00133049
0.00209255
0.0021028
0.00214536
0.00316169
0.00312387
0.00311869
0.00402453
0.00398482
0.00396725
0.00448433
0.00447064
0.00446574
0.00451974
0.00454222
0.00456569
0.00426473
0.00431312
0.00436003
0.0038808
0.00394493
0.00400957
0.00352878
0.00357355
0.00359993
0.00327072
0.00329602
0.00332824
0.00316945
0.00317177
0.00318213
0.00325601
0.0032351
0.00322299
0.003532
0.00348989
0.00345815
0.00370467
0.00372422
0.00374394
0.00346572
0.00347632
0.00348753
0.00320239
0.00320266
0.00320348
0.00286351
0.00285472
0.00284609
0.00233608
0.00231988
0.00230368
0.00142531
0.00140843
0.00139181
0.000273127
0.000270894
0.000268681
2.61788e-05
4.33852e-05
5.4958e-05
5.49444e-05
6.9917e-05
7.53877e-05
8.01148e-05
8.43005e-05
8.8072e-05
9.15124e-05
9.46793e-05
9.76152e-05
0.000100353
0.000102919
0.000105335
0.000107619
0.000109787
0.000111853
0.000113831
0.00011573
0.000117562
0.000119336
0.000121062
0.000122747
0.000124401
0.000126031
0.000127644
0.00012925
0.000130854
0.000132465
0.000134091
0.000135739
0.000137419
0.000139139
0.000140909
0.00014274
0.000144646
0.000146641
0.000148743
0.000150973
0.000153345
0.000155791
0.000158311
0.000160904
0.000163571
0.000166315
0.000169139
0.000172043
0.000175027
0.000178092
0.000181234
0.000184448
0.000187729
0.000191067
0.000194446
0.000197849
0.000201249
0.000204608
0.000207879
0.000210994
0.000213863
0.000216365
0.000218339
0.000219586
0.000219916
0.000219187
0.000217388
0.000214483
0.000210372
0.000204776
0.000197594
0.000188461
0.000177477
0.000165001
0.000151513
0.000138801
0.000126085
0.000112677
9.72912e-05
6.57382e-05
4.29352e-05
0.000123633
0.000141857
0.000159928
0.00018318
0.000210454
0.000239924
0.000270867
0.000302613
0.000334613
0.000366425
0.000397717
0.000428253
0.000457877
0.000486496
0.000514059
0.000540553
0.000565988
0.000590392
0.000613807
0.000636285
0.000657886
0.000678672
0.000698712
0.000718076
0.000736832
0.000755051
0.000772801
0.000790147
0.000807149
0.000823863
0.000840338
0.000856616
0.000872724
0.000888679
0.000904479
0.000920102
0.000935509
0.000950541
0.000965081
0.000979294
0.000994868
0.00101115
0.00102806
0.00104562
0.00106383
0.00108271
0.00110228
0.00112252
0.00114342
0.00116495
0.00118703
0.00120959
0.00123249
0.00125557
0.00127859
0.00130124
0.00132314
0.00134374
0.00136237
0.00137814
0.00138983
0.00139585
0.0013942
0.00138354
0.00136614
0.00134166
0.00130935
0.00126814
0.00121432
0.00114974
0.00107057
0.00098079
0.000878586
0.000743223
0.000570775
0.000414375
0.000294984
0.000209015
7.03553e-05
5.25017e-05
0.000183196
0.000221429
0.000261061
0.00031185
0.000371682
0.00043769
0.000507558
0.00057934
0.000651519
0.000722968
0.00079291
0.000860836
0.000926441
0.000989557
0.00105011
0.00110811
0.00116358
0.0012166
0.00126724
0.00131563
0.00136186
0.00140605
0.00144832
0.00148879
0.00152758
0.0015648
0.00160055
0.00163496
0.00166812
0.00170012
0.00173105
0.001761
0.00179002
0.00181817
0.00184551
0.00187208
0.00189788
0.00192293
0.00194723
0.00197075
0.00199405
0.00201856
0.00204354
0.00206881
0.00209427
0.00211985
0.00214545
0.00217095
0.00219617
0.0022209
0.00224487
0.00226775
0.00228914
0.00230853
0.00232537
0.00233895
0.0023485
0.00235308
0.00235168
0.00234313
0.00232617
0.00229942
0.00222963
0.00204118
0.00188238
0.00176499
0.00168931
0.00166114
0.00169001
0.00170408
0.0015866
0.00146444
0.00133114
0.0011681
0.000934571
0.00067855
0.000455025
0.000283846
7.31321e-05
5.81316e-05
0.000232305
0.00030253
0.000370459
0.000454213
0.000550427
0.000655632
0.000765784
0.000877813
0.000989468
0.00109919
0.00120596
0.00130918
0.0014085
0.00150378
0.00159496
0.00168209
0.00176526
0.00184456
0.00192014
0.00199212
0.00206066
0.0021259
0.00218799
0.00224706
0.00230327
0.00235674
0.00240761
0.00245599
0.002502
0.00254574
0.00258733
0.00262685
0.00266438
0.0027
0.00273379
0.00276579
0.00279605
0.00282459
0.00285143
0.00287656
0.00289993
0.00292271
0.00294525
0.00296691
0.00298743
0.0030066
0.00302418
0.00303993
0.00305353
0.00306462
0.00307276
0.00307745
0.00307811
0.00307407
0.00306458
0.00304883
0.00302594
0.00299495
0.00295494
0.002905
0.00284435
0.0027724
0.0026888
0.00249768
0.0022597
0.0020733
0.00193777
0.00185442
0.00183297
0.00185573
0.00172731
0.00160089
0.00147406
0.0013311
0.00112283
0.00084975
0.000570271
0.000329401
7.24661e-05
6.19409e-05
0.000278868
0.000383935
0.000484523
0.000602924
0.000736101
0.000878751
0.00102607
0.00117433
0.00132093
0.00146417
0.001603
0.00173683
0.00186536
0.00198848
0.00210621
0.00221861
0.0023258
0.00242794
0.00252516
0.00261764
0.00270553
0.00278899
0.00286818
0.00294325
0.00301434
0.00308159
0.00314513
0.00320508
0.00326155
0.00331464
0.00336444
0.00341104
0.00345451
0.00349491
0.0035323
0.00356672
0.00359821
0.00362676
0.0036524
0.00367508
0.00369477
0.00371138
0.00372664
0.00373978
0.00375039
0.00375813
0.00376271
0.0037638
0.00376101
0.00375391
0.00374198
0.00372465
0.00370124
0.00367101
0.00363316
0.00358679
0.003531
0.00346488
0.00338756
0.00329831
0.00319661
0.00308226
0.00295545
0.00281697
0.00266797
0.00251102
0.00234974
0.00216624
0.00202531
0.00187816
0.00173533
0.00160371
0.00148383
0.00136507
0.00120433
0.000947819
0.000645503
0.000354036
7.02865e-05
6.46091e-05
0.000318585
0.000464576
0.000599867
0.000752628
0.000920223
0.00109661
0.00127644
0.00145582
0.00163213
0.0018037
0.00196958
0.00212924
0.00228245
0.00242918
0.00256948
0.00270345
0.00283123
0.00295299
0.0030689
0.0031791
0.00328379
0.0033831
0.00347721
0.00356625
0.00365038
0.00372971
0.00380438
0.00387449
0.00394014
0.00400141
0.00405839
0.00411113
0.0041597
0.00420413
0.00424445
0.0042807
0.00431287
0.00434098
0.00436501
0.00438492
0.00440069
0.00441224
0.00441987
0.00442471
0.00442596
0.00442321
0.0044161
0.00440428
0.00438735
0.00436484
0.00433623
0.00430088
0.00425807
0.00420701
0.0041468
0.00407646
0.00399498
0.00390132
0.00379452
0.00367375
0.00353842
0.00338834
0.00322386
0.00304607
0.00285717
0.00266068
0.00246126
0.00226421
0.0020748
0.00189738
0.00173473
0.0015886
0.00146003
0.00134479
0.00121434
0.00100361
0.000702162
0.000371604
6.74387e-05
6.66795e-05
0.000354544
0.000543399
0.000713683
0.000898835
0.00109729
0.00130292
0.00151037
0.00171586
0.00191692
0.00211204
0.00230041
0.00248161
0.0026555
0.00282209
0.00298147
0.00313379
0.00327919
0.00341783
0.0035499
0.00367554
0.00379493
0.00390821
0.00401554
0.00411706
0.00421291
0.00430321
0.00438807
0.00446759
0.00454185
0.00461094
0.00467491
0.00473382
0.00478769
0.00483655
0.00488042
0.0049193
0.00495319
0.00498208
0.00500594
0.00502475
0.00503845
0.00504696
0.00505019
0.00504954
0.0050445
0.00503467
0.00501971
0.00499926
0.00497295
0.00494031
0.00490081
0.00485381
0.00479857
0.0047342
0.00465973
0.00457404
0.00447591
0.00436409
0.0042373
0.00409436
0.00393432
0.00375663
0.00356134
0.00334946
0.00312325
0.00288657
0.00264506
0.00240563
0.00217575
0.00196209
0.00176884
0.00159608
0.00144554
0.00131648
0.00119253
0.00101974
0.000732543
0.000378696
6.56977e-05
6.84991e-05
0.000387789
0.000619912
0.000824317
0.00103905
0.00126437
0.00149472
0.00172513
0.00195211
0.00217346
0.0023879
0.00259477
0.00279377
0.00298486
0.00316809
0.00334358
0.00351148
0.00367196
0.00382516
0.00397126
0.0041104
0.00424275
0.00436844
0.00448763
0.00460045
0.00470702
0.00480747
0.00490189
0.00499039
0.00507305
0.00514992
0.00522106
0.00528652
0.0053463
0.00540043
0.00544892
0.00549174
0.00552889
0.00556035
0.0055861
0.0056061
0.00562032
0.0056287
0.0056312
0.00562798
0.00562008
0.00560694
0.0055882
0.00556353
0.0055326
0.00549498
0.00545015
0.00539751
0.00533631
0.00526563
0.00518441
0.00509143
0.00498526
0.00486437
0.00472709
0.00457175
0.00439679
0.00420092
0.00398347
0.00374464
0.00348602
0.00321094
0.00292513
0.00263688
0.0023558
0.00209134
0.00184961
0.00163649
0.00145365
0.00129817
0.00115063
0.000950109
0.000703497
0.000383846
6.50226e-05
7.02922e-05
0.00041954
0.000694466
0.000931427
0.00117255
0.0014207
0.00167145
0.00192046
0.00216473
0.00240239
0.0026324
0.00285429
0.00306787
0.00327315
0.00347023
0.00365925
0.00384035
0.00401369
0.00417942
0.00433768
0.00448862
0.00463239
0.00476912
0.00489895
0.00502201
0.00513842
0.0052483
0.00535175
0.00544885
0.0055397
0.00562434
0.00570283
0.00577521
0.00584148
0.00590167
0.00595575
0.00600372
0.00604555
0.00608122
0.00611069
0.00613392
0.00615088
0.00616151
0.00616573
0.00616342
0.00615578
0.0061425
0.00612333
0.00609799
0.00606621
0.00602763
0.00598181
0.00592818
0.00586603
0.0057945
0.00571251
0.00561877
0.00551176
0.0053897
0.0052506
0.0050923
0.00491255
0.0047092
0.00448043
0.00422514
0.00394346
0.00363749
0.00331139
0.00297352
0.00263407
0.00230434
0.00199783
0.00172638
0.0014951
0.00130112
0.00108634
0.000917975
0.000698242
0.000402999
6.58721e-05
7.22468e-05
0.000451394
0.00076839
0.001036
0.00130022
0.00156723
0.00183423
0.00209781
0.00235552
0.00260589
0.00284816
0.00308199
0.00330729
0.00352413
0.0037326
0.00393284
0.00412499
0.0043092
0.00448558
0.00465428
0.00481542
0.00496915
0.00511559
0.00525487
0.00538711
0.00551245
0.00563098
0.00574282
0.00584805
0.00594674
0.00603898
0.00612479
0.00620422
0.00627728
0.00634398
0.00640431
0.00645824
0.00650575
0.00654679
0.00658132
0.00660929
0.00663067
0.00664537
0.00665332
0.0066544
0.00664916
0.00663802
0.00662077
0.00659724
0.00656721
0.00653042
0.00648651
0.00643504
0.00637538
0.00630676
0.0062282
0.00613843
0.00603595
0.00591892
0.00578516
0.00563219
0.00545723
0.00525734
0.00502955
0.00477123
0.00448052
0.0041571
0.00380322
0.0034242
0.00302871
0.00263054
0.00224668
0.00189549
0.00159147
0.00133932
0.00109632
0.000880778
0.000701626
0.000443068
6.93528e-05
7.46564e-05
0.000485759
0.000844082
0.00114037
0.00142445
0.00170642
0.00198568
0.00225998
0.00252755
0.00278735
0.00303884
0.00328181
0.00351624
0.0037422
0.00395979
0.00416911
0.00437028
0.00456342
0.00474864
0.00492605
0.00509579
0.00525797
0.00541272
0.00556017
0.00570044
0.00583366
0.00595992
0.00607935
0.00619202
0.00629801
0.00639739
0.00649021
0.0065765
0.00665629
0.00672957
0.00679634
0.00685658
0.00691025
0.00695728
0.00699764
0.00703126
0.00705806
0.00707798
0.00709093
0.00709681
0.00709552
0.00708804
0.00707424
0.00705404
0.00702734
0.00699398
0.00695372
0.00690625
0.00685109
0.00678764
0.00671504
0.00663223
0.0065378
0.00643001
0.00630674
0.00616543
0.00600305
0.0058162
0.00560108
0.00535379
0.00507056
0.00474852
0.00438615
0.00398491
0.0035503
0.00309328
0.00263074
0.00218523
0.0017817
0.00143889
0.0011615
0.000882131
0.000695883
0.000487247
7.65033e-05
7.78044e-05
0.000524893
0.00087765
0.00122964
0.00154941
0.00184235
0.00212982
0.00241107
0.00268507
0.00295116
0.003209
0.00345846
0.00369954
0.00393227
0.00415673
0.00437297
0.00458109
0.00478117
0.0049733
0.0051576
0.00533418
0.00550317
0.00566468
0.00581885
0.0059658
0.00610566
0.00623854
0.00636453
0.00648372
0.0065962
0.00670201
0.00680122
0.00689386
0.00697995
0.0070595
0.0071325
0.00719893
0.00725877
0.00731194
0.00735837
0.00739798
0.00743067
0.00745633
0.00747486
0.0074861
0.00748991
0.00748701
0.00747751
0.00746148
0.00743892
0.0074098
0.00737402
0.00733142
0.00728171
0.00722447
0.00715906
0.00708465
0.00700008
0.00690385
0.00679407
0.00666834
0.00652376
0.00635684
0.0061635
0.00593913
0.00567871
0.00537713
0.00502983
0.00463357
0.00418807