/*--------------------------------*- C++ -*----------------------------------*\
| =========                 |                                                 |
| \\      /  F ield         | OpenFOAM: The Open Source CFD Toolbox           |
|  \\    /   O peration     | Version:  v2012                                 |
|   \\  /    A nd           | Website:  www.openfoam.com                      |
|    \\/     M anipulation  |                                                 |
\*---------------------------------------------------------------------------*/
FoamFile
{
    version     2.0;
    format      ascii;
    class       volScalarField;
    location    "501";
    object      omega;
}
// * * * * * * * * * * * * * * * * * * * * * * * * * * * * * * * * * * * * * //

dimensions      [0 0 -1 0 0 0 0];


internalField   nonuniform List<scalar> 
6556
(
642.59
230.212
198.918
195.228
197.516
197.516
195.228
198.918
230.212
642.59
475.729
197.66
162.379
156.068
156.381
156.381
156.068
162.379
197.66
475.729
377.205
168.525
136.476
129.3
128.387
128.387
129.3
136.476
168.525
377.205
313.763
145.17
117.158
109.972
108.442
108.442
109.972
117.158
145.17
313.763
269.964
126.829
102.284
95.4302
93.6393
93.6393
95.4302
102.284
126.829
269.964
238.001
112.348
90.5555
84.1358
82.269
82.269
84.1358
90.5554
112.348
238.001
213.625
100.757
81.1226
75.1392
73.287
73.2869
75.1391
81.1225
100.757
213.625
194.369
91.332
73.4061
67.8233
66.0265
66.0265
67.8232
73.406
91.3318
194.37
178.724
83.5468
66.9983
61.7704
60.0451
60.0451
61.7703
66.9981
83.5464
178.724
165.717
77.0216
61.6058
56.6884
55.0381
55.0381
56.6882
61.6055
77.021
165.718
154.7
71.4796
57.0133
52.367
50.7896
50.7895
52.3668
57.0129
71.4787
154.701
145.222
66.7162
53.0602
48.6515
47.1424
47.1423
48.6512
53.0595
66.715
145.224
136.963
62.5786
49.6247
45.4255
43.9794
43.9792
45.4251
49.6238
62.5766
136.966
129.688
58.9504
46.6133
42.6004
41.2118
41.2116
42.5997
46.6119
58.9475
129.692
123.218
55.7421
43.9532
40.1069
38.771
38.7706
40.1059
43.9511
55.7379
123.224
117.42
52.884
41.5869
37.891
36.6032
36.6026
37.8895
41.5839
52.878
117.429
112.188
50.3211
39.4687
35.9093
34.6656
34.6649
35.9071
39.4645
50.3131
112.2
107.438
48.0095
37.562
34.1271
32.924
32.923
34.1239
37.5563
48.0005
107.453
103.102
45.914
35.837
32.5163
31.3504
31.349
32.5117
35.8291
45.9053
103.121
99.1249
44.0061
34.2693
31.0536
29.9221
29.92
31.0468
34.2584
44.0113
99.1458
95.4612
42.2624
32.8389
29.72
28.62
28.6165
29.706
32.7866
41.8183
83.3058
92.0721
40.6637
31.5294
28.4996
27.4283
27.422
28.4709
31.401
39.655
70.589
88.9251
39.1937
30.3266
27.3788
26.3335
26.3225
27.3263
30.0897
37.5047
60.6511
85.9922
37.8386
29.2188
26.3464
25.3241
25.3065
26.2615
28.8493
35.2089
52.8343
83.2493
36.5867
28.1959
25.3927
24.3906
24.3651
25.2713
27.6376
32.899
46.7044
80.6756
35.4279
27.2492
24.5092
23.5248
23.4894
24.3494
26.4469
30.7935
41.9471
78.2527
34.3538
26.3715
23.6891
22.7193
22.671
23.4721
25.345
28.9959
38.2433
75.9642
33.3573
25.5567
22.9262
21.968
21.9038
22.6401
24.3192
27.4933
35.3288
73.7958
32.4327
24.7994
22.2154
21.2658
21.1829
21.853
23.3691
26.2091
32.8754
71.7342
31.5748
24.0954
21.5523
20.6083
20.5045
21.1099
22.4901
25.0806
30.7061
69.7676
30.7791
23.441
20.9332
19.9917
19.8652
20.4088
21.6754
24.0643
28.7858
67.885
30.0425
22.8333
20.3553
19.4131
19.2625
19.7472
20.9158
23.1182
27.0772
66.0762
29.3623
22.2699
19.8159
18.8699
18.6938
19.1224
20.2015
22.2226
25.5472
64.3317
28.7364
21.7492
19.3133
18.3602
18.1571
18.5314
19.5248
21.3667
24.1658
62.6423
28.1634
21.2702
18.8462
17.8825
17.6509
17.9715
18.8794
20.5432
22.9063
60.9994
27.6423
20.8326
18.4142
17.4361
17.174
17.4405
18.2606
19.7478
21.7467
59.3945
27.1726
20.4366
18.0171
17.0207
16.7256
16.9367
17.6655
18.9782
20.669
57.8194
26.7538
20.0831
17.6558
16.6366
16.3059
16.4595
17.0931
18.2339
19.6599
56.266
26.3856
19.7735
17.3315
16.285
15.9155
16.0093
16.5441
17.5168
18.7109
54.7264
26.0678
19.5097
17.0463
15.9676
15.5561
15.5877
16.0211
16.8305
17.8178
53.1925
25.7992
19.2938
16.8028
15.6869
15.2299
15.1972
15.5285
16.1809
16.9809
51.6565
25.578
19.1283
16.6042
15.4461
14.9401
14.8414
15.0717
15.5751
16.2038
50.1103
25.4017
19.0153
16.454
15.2489
14.6907
14.5248
14.6569
15.0212
15.4932
48.5458
25.2663
18.9568
16.356
15.0996
14.4858
14.2523
14.2905
14.5271
14.8571
46.9543
25.1671
18.9542
16.314
15.0025
14.3302
14.0288
13.9784
14.0999
14.3031
45.3263
25.098
19.0083
16.3315
14.9621
14.2284
13.8591
13.7256
13.7447
13.8369
43.6512
25.0519
19.1184
16.4116
14.9826
14.1849
13.7475
13.536
13.4645
13.4611
41.9161
25.0203
19.2829
16.5563
15.0676
14.2037
13.6977
13.4121
13.2599
13.175
40.105
24.9931
19.4981
16.7659
15.2194
14.2878
13.7123
13.3552
13.1301
12.9748
38.197
24.9581
19.7574
17.0384
15.4385
14.4387
13.7928
13.3657
13.0727
12.8554
36.1624
24.8982
20.0492
17.3669
15.7214
14.6548
13.9382
13.4419
13.0843
12.8105
33.9563
24.786
20.3521
17.7361
16.0574
14.9285
14.1428
13.579
13.1599
12.834
31.5056
24.5506
20.6132
18.1091
16.4196
15.2397
14.3918
13.766
13.2914
12.9224
28.6286
24.0858
20.7461
18.4132
16.7504
15.5449
14.6538
13.983
13.4737
13.0814
25.2154
23.2154
20.6418
18.5563
16.9717
15.7829
14.8874
14.2163
13.7036
13.2996
21.0812
21.4121
20.0065
18.3818
16.9931
15.902
15.0845
14.4574
13.963
13.5628
15.3841
17.84
18.2701
17.5684
16.6711
15.8934
15.2422
14.7018
14.2534
13.8782
13.2633
12.7499
15.061
15.8171
15.8722
15.6478
15.3247
14.9814
14.6538
14.3553
12.937
9.74692
11.8299
13.7291
14.8629
15.4747
15.7592
15.8298
15.7935
15.716
13.7279
14.6494
18.1952
22.2295
26.0299
28.6209
30.5538
32.1448
33.4483
34.5102
35.0442
20.7327
21.0471
21.7019
22.2302
22.5527
22.6511
22.5091
22.0736
21.5469
20.9207
20.1927
19.3713
18.489
17.5642
16.6074
15.6064
14.6776
13.7807
12.8811
11.9492
10.9469
9.81188
8.41559
7.24226
43.8742
15.771
9.26503
8.00376
7.65249
7.49565
7.37661
7.2431
7.06605
6.85172
6.62035
6.39275
6.18291
5.99478
5.83336
5.70563
5.63472
5.78078
6.07288
6.4531
6.85806
7.20327
7.38862
7.37515
11.198
47.4304
20.5905
10.1658
7.40727
6.49285
6.06135
5.78036
5.54634
5.31038
5.04717
4.79301
4.55414
4.33391
4.13631
3.96929
3.84334
3.77675
3.82801
4.01682
4.34991
4.81709
5.37005
5.91869
6.50435
12.2576
47.3607
24.5715
13.4422
8.79084
7.00471
6.187
5.68553
5.30587
4.97336
4.64981
4.34423
4.069
3.81467
3.58187
3.38023
3.22214
3.12331
3.11478
3.21873
3.45563
3.84202
4.37075
4.99598
5.85072
12.6449
45.5727
27.5798
16.1098
10.7674
8.09959
6.75026
5.97032
5.41426
4.96855
4.58748
4.24241
3.93283
3.64693
3.37998
3.14273
2.95095
2.82117
2.77495
2.82906
3.00252
3.31752
3.7871
4.40659
5.3977
12.6676
43.0728
29.0031
18.3333
12.4579
9.38001
7.56016
6.43784
5.67393
5.10068
4.6464
4.2703
3.93577
3.62477
3.32573
3.0507
2.82156
2.66092
2.5875
2.61186
2.7471
3.01312
3.43055
4.0253
5.09456
12.4884
40.2286
29.6203
20.1276
14.0393
10.5214
8.43262
7.04722
6.05184
5.32612
4.78158
4.35926
4.01201
3.69351
3.36487
3.04927
2.77418
2.57708
2.47991
2.48591
2.59894
2.8332
3.21113
3.77971
4.89409
12.1905
37.475
29.6196
21.3017
15.4178
11.6186
9.22022
7.61889
6.47822
5.62874
4.98456
4.50297
4.13356
3.81228
3.48265
3.13199
2.80101
2.55466
2.43026
2.42297
2.52244
2.73549
3.08392
3.62888
4.76625
11.8059
34.9319
29.181
21.9963
16.5006
12.618
9.98943
8.16988
6.86403
5.90512
5.20282
4.68552
4.29675
3.97676
3.6512
3.28155
2.90082
2.60547
2.44827
2.42325
2.50874
2.70354
3.02785
3.55408
4.71005
11.3724
32.6176
28.3893
22.3836
17.2971
13.4665
10.7039
8.71167
7.25333
6.18158
5.41268
4.86955
4.48008
4.17645
3.8697
3.50022
3.08246
2.72438
2.52426
2.47947
2.55211
2.73246
3.04031
3.56269
4.76733
10.9736
30.5251
27.4039
22.4861
17.8365
14.1488
11.3351
9.22121
7.64084
6.47444
5.64035
5.06734
4.67907
4.40357
4.1405
3.79627
3.36602
2.93746
2.66759
2.5877
2.64583
2.81584
3.11576
3.64582
4.89324
10.5802
28.6458
26.3451
22.3371
18.1509
14.6732
11.8688
9.68099
8.01199
6.77246
5.88546
5.28978
4.89845
4.65732
4.46163
4.18397
3.77417
3.29016
2.90648
2.75573
2.79076
2.95258
3.25141
3.79262
5.04742
10.177
26.9569
25.2692
21.9771
18.3086
15.0282
12.287
10.0755
8.35369
7.06612
6.14759
5.5294
5.142
4.93164
4.81053
4.64744
4.32342
3.84274
3.33251
3.02106
2.99953
3.1458
3.4432
3.9849
5.18087
9.76707
25.4312
24.2017
21.4934
18.3109
15.2414
12.6008
10.4048
8.66106
7.34692
6.41174
5.78883
5.40573
5.21685
5.15587
5.12122
4.98208
4.61867
4.07746
3.55182
3.32626
3.41677
3.70301
4.23265
5.30789
9.39758
24.043
23.1614
20.9369
18.1794
15.3483
12.8307
10.6764
8.93399
7.61055
6.66978
6.04862
5.67381
5.50165
5.47029
5.52492
5.58455
5.5226
5.19386
4.63108
4.04012
3.89945
4.11452
4.61986
5.54525
8.62485
22.7686
22.1559
20.3388
17.9407
15.3831
12.9856
10.8965
9.17579
7.85589
6.91459
6.29569
5.92749
5.76621
5.74301
5.8198
5.977
6.16439
6.28897
6.20475
5.84403
5.29294
5.13133
5.43672
6.17464
8.23747
21.5875
21.1822
19.7075
17.6385
15.3621
13.0953
11.0886
9.39931
8.08947
7.14522
6.51816
6.15266
5.9955
5.97172
6.02929
6.16986
6.38922
6.68795
7.03286
7.37146
7.6703
7.96865
8.48817
9.4129
10.5611
20.4834
20.24
19.0572
17.2909
15.2715
13.1978
11.2661
9.61818
8.31247
7.36179
6.72006
6.34125
6.17855
6.15419
6.20392
6.29744
6.43079
6.62405
6.88046
7.20737
7.58606
7.99494
8.40271
8.82539
9.22997
19.444
19.3268
18.3965
16.9121
15.1351
13.2767
11.4481
9.84649
8.54431
7.57465
6.90511
6.49594
6.31065
6.27881
6.33364
6.43553
6.5625
6.70552
6.87202
7.07223
7.31693
7.59769
7.87363
8.11227
8.2652
18.4619
18.4398
17.7268
16.4982
14.9613
13.3057
11.6611
10.1077
8.81776
7.8217
7.10319
6.63983
6.40309
6.33319
6.36818
6.46602
6.60003
6.75297
6.9135
7.0742
7.23057
7.37874
7.50126
7.55338
7.47728
17.5343
17.5785
17.0501
16.0554
14.7557
13.3005
11.8241
10.4197
9.14427
8.13481
7.37124
6.83429
6.51944
6.37805
6.35237
6.39987
6.49183
6.60787
6.73088
6.8437
6.93028
6.9778
6.97349
6.88573
6.67753
16.6635
16.7461
16.369
15.5843
14.5083
13.263
11.9571
10.6886
9.52716
8.52647
7.7266
7.13617
6.73737
6.51006
6.40603
6.38342
6.41046
6.46302
6.52102
6.56544
6.57959
6.55287
6.48003
6.35
6.14287
15.8562
15.9504
15.6896
15.0872
14.2186
13.1785
12.0576
10.9341
9.88039
8.95228
8.17044
7.5461
7.09033
6.78809
6.60386
6.51117
6.47866
6.48092
6.49527
6.50188
6.48461
6.4336
6.34458
6.21624
6.0452
15.1221
15.2037
15.0233
14.5702
13.8866
13.0396
12.101
11.1372
10.2069
9.36033
8.62785
8.02279
7.55213
7.20658
6.96426
6.80383
6.71579
6.67679
6.66342
6.65433
6.63259
6.58799
6.51522
6.41142
6.27582
14.4724
14.522
14.3871
14.0463
13.5179
12.8446
12.0789
11.2736
10.477
9.73041
9.06509
8.49851
8.03807
7.68108
7.4153
7.22574
7.0991
7.02277
6.98565
6.96633
6.94808
6.91899
6.87182
6.80228
6.70722
13.9167
13.9216
13.8023
13.5361
13.1271
12.5996
11.9887
11.3334
10.6716
10.0364
9.45309
8.94054
8.50892
8.16038
7.89084
7.69123
7.55302
7.46492
7.41126
7.38155
7.36538
7.3497
7.32566
7.29078
7.23886
13.4608
13.4161
13.2907
13.0653
12.7383
12.3224
11.8397
11.3169
10.7811
10.2566
9.76437
9.32065
8.93572
8.61447
8.35756
8.16154
8.02055
7.92672
7.87012
7.84073
7.82677
7.82055
7.81597
7.80653
7.78742
13.1056
13.0127
12.8688
12.6594
12.3814
12.0422
11.6556
11.2382
10.8082
10.3835
9.97949
9.60899
9.28097
9.00123
8.77322
8.59554
8.46441
8.37527
8.32181
8.29669
8.29136
8.2975
8.30691
8.31541
8.32028
12.8471
12.7111
12.5449
12.3369
12.0848
11.7931
11.4699
11.1265
10.7757
10.4297
10.0998
9.7949
9.52198
9.28556
9.09007
8.93725
8.82359
8.74597
8.70054
8.68238
8.68554
8.70367
8.73056
8.76073
8.78881
12.6778
12.505
12.3179
12.1068
11.8682
11.6032
11.3179
11.0208
10.7215
10.429
10.1514
9.89508
9.66496
9.46424
9.29531
9.1607
9.0601
8.9906
8.94919
8.93256
8.93704
8.95836
8.99196
9.03338
9.0782
12.5893
12.3858
12.1833
11.9699
11.7388
11.4899
11.2274
10.9577
10.6884
10.4267
10.1793
9.95112
9.7459
9.56589
9.41247
9.28619
9.18731
9.11499
9.06717
9.04115
9.03421
9.04354
9.06618
9.0991
9.13911
12.5751
12.35
12.1364
11.9209
11.6959
11.4592
11.2127
10.9607
10.7092
10.4641
10.2311
10.0145
9.8178
9.6429
9.49081
9.3618
9.25548
9.17082
9.10602
9.05949
9.0295
9.01386
9.01038
9.01708
9.03186
12.6387
12.3955
12.172
11.9546
11.7346
11.5083
11.275
11.0373
10.799
10.5647
10.3389
10.1258
9.92828
9.74858
9.58783
9.44645
9.32425
9.22047
9.13386
9.06287
9.00565
8.96025
8.92514
8.89903
8.8805
12.7771
12.5181
12.2848
12.064
11.8468
11.628
11.4057
11.1803
10.9539
10.7294
10.5102
10.2994
10.0999
9.91356
9.74188
9.58556
9.44483
9.31943
9.20873
9.11173
9.02723
8.95388
8.8902
8.83481
8.78655
12.9822
12.7106
12.4678
12.2417
12.0241
11.8093
11.5945
11.3787
11.1625
10.9474
10.7356
10.5292
10.3304
10.1408
9.96182
9.79436
9.6389
9.49558
9.36423
9.24445
9.13562
9.03692
8.94742
8.86618
8.7925
13.2425
12.9653
12.7168
12.4869
12.2681
12.055
11.8444
11.6349
11.4261
11.2187
11.0138
10.8128
10.6171
10.428
10.2466
10.0738
9.91005
9.75574
9.61095
9.47555
9.34928
9.23175
9.12245
9.02087
8.92671
13.571
13.3004
13.0549
12.8264
12.6086
12.3972
12.1896
11.9844
11.7813
11.5802
11.3819
11.1872
10.997
10.8122
10.6336
10.462
10.2978
10.1413
9.99259
9.85175
9.71861
9.59296
9.47446
9.36279
9.25785
14.097
13.8598
13.6377
13.4255
13.2204
13.0205
12.8247
12.6322
12.4428
12.2566
12.0739
11.8952
11.7212
11.5525
11.3895
11.2327
11.0825
10.9388
10.8019
10.6716
10.5478
10.4302
10.3186
10.2125
10.1118
15.6291
15.5384
15.4456
15.3452
15.2409
15.1345
15.0265
14.9173
14.8073
14.6969
14.5866
14.4769
14.3683
14.2612
14.156
14.0529
13.9522
13.854
13.7582
13.6648
13.5735
13.4843
13.3968
13.3108
13.2264
35.3581
36.0882
36.7112
37.222
37.6336
37.9549
38.1931
38.3551
38.4474
38.4766
38.4488
38.3701
38.2464
38.0832
37.8859
37.6595
37.4085
37.1372
36.8495
36.5488
36.2383
35.9206
35.5983
35.2734
34.9478
7.7862
8.04028
15.2133
12.7022
13.8467
12.3001
11.2223
10.8014
9.84655
9.33237
9.00826
8.22029
8.18279
7.75561
6.91261
7.17907
6.66109
5.92303
6.31903
5.87177
5.34772
5.85869
5.5439
5.20038
5.83776
5.61897
5.38755
6.12128
5.96066
5.79303
6.59421
6.47403
6.34319
7.17211
7.09191
6.99738
7.75791
7.71795
7.66469
8.31853
8.30779
8.28732
8.81028
8.82652
8.83792
9.11901
9.15696
9.19123
9.17926
9.22097
9.26321
9.05075
9.07354
9.09945
8.86927
8.86228
8.85869
8.74848
8.71467
8.68407
8.73228
8.67685
8.625
8.84843
8.77522
8.70583
9.1697
9.08632
9.00658
10.0267
9.94544
9.86698
13.1529
13.0802
13.0077
34.6621
34.3788
34.0979
4.35682
5.50591
6.97457
8.02951
8.87296
9.56724
10.1671
10.6983
11.177
11.6136
12.0155
12.3881
12.7355
13.0611
13.3677
13.6576
13.9327
14.195
14.4459
14.687
14.9194
15.1446
15.3636
15.5775
15.7873
15.9942
16.199
16.4027
16.6063
16.8108
17.0171
17.2263
17.4395
17.6577
17.8824
18.1148
18.3567
18.6099
18.8766
19.1597
19.4606
19.7711
20.0909
20.42
20.7585
21.1067
21.465
21.8336
22.2123
22.6013
23
23.408
23.8243
24.2479
24.6768
25.1086
25.54
25.9664
26.3815
26.7769
27.141
27.4585
27.709
27.8672
27.9091
27.8166
27.5882
27.2196
26.6979
25.9877
25.0763
23.9173
22.5233
20.94
19.2283
17.615
16.0012
14.2996
12.347
10.9406
9.07188
6.01977
6.70959
7.11466
7.31867
7.39674
7.39593
7.35648
7.2991
7.23547
7.17188
7.11164
7.05637
7.00674
6.96285
6.92452
6.89141
6.86312
6.83921
6.81929
6.80296
6.78988
6.77975
6.77231
6.76736
6.76473
6.7643
6.76602
6.76985
6.77584
6.7841
6.79476
6.80808
6.82435
6.84402
6.86759
6.89574
6.92926
6.9696
7.01809
7.07455
7.13003
7.18697
7.24573
7.30653
7.36955
7.43498
7.50304
7.57394
7.6479
7.72516
7.80595
7.89049
7.97896
8.07151
8.16819
8.26894
8.37351
8.4814
8.59178
8.70332
8.81417
8.92245
9.0275
9.12616
9.20215
9.23269
9.20489
9.10913
8.91478
8.66512
8.37329
8.05548
7.76578
7.7235
8.14798
8.75866
9.30355
9.64432
14.8656
11.0932
6.13033
6.23577
6.29645
6.2539
6.13671
5.98213
5.81992
5.66395
5.52069
5.39243
5.27933
5.18052
5.09469
5.02035
4.95607
4.90052
4.8525
4.81096
4.77501
4.74386
4.71688
4.69352
4.67333
4.65594
4.64107
4.6285
4.61805
4.60963
4.60316
4.59864
4.5961
4.5956
4.59727
4.60125
4.60775
4.61698
4.62921
4.64476
4.66392
4.68701
4.71348
4.74108
4.771
4.80367
4.83949
4.87884
4.92213
4.96983
5.02243
5.08046
5.14448
5.21508
5.29285
5.37841
5.47231
5.57507
5.68708
5.80856
5.93946
6.07934
6.22713
6.38101
6.53838
6.69573
6.84567
6.97011
7.05055
7.06696
7.00058
6.84437
6.58371
6.25248
5.89075
5.63576
5.75301
6.25093
7.02946
8.04423
15.4523
12.2827
6.04704
5.7848
5.66321
5.49946
5.30994
5.11057
4.92107
4.74937
4.59792
4.46645
4.35347
4.25695
4.17477
4.10493
4.04557
3.9951
3.95213
3.91547
3.88413
3.85729
3.83426
3.81448
3.79749
3.78292
3.77048
3.75994
3.75113
3.74393
3.73828
3.73412
3.73148
3.73038
3.73089
3.73312
3.73719
3.74327
3.75153
3.7622
3.77553
3.79181
3.81136
3.83353
3.85817
3.88595
3.91735
3.95282
3.99288
4.03805
4.08893
4.14616
4.21043
4.28246
4.36304
4.45299
4.55313
4.66429
4.78725
4.9227
5.07117
5.23292
5.40775
5.59468
5.7915
5.99536
6.20259
6.40103
6.57303
6.69624
6.74356
6.6903
6.51175
6.18368
5.70546
5.25527
5.06293
5.29338
5.9452
7.14549
15.3116
13.0876
5.88813
5.39543
5.17412
4.95584
4.73518
4.52458
4.33348
4.16558
4.02092
3.89787
3.79405
3.70695
3.63413
3.57337
3.52272
3.48049
3.44526
3.41585
3.39127
3.37069
3.35345
3.33901
3.32692
3.31685
3.3085
3.30166
3.29618
3.29195
3.28888
3.28695
3.28616
3.28654
3.28815
3.29108
3.29545
3.3014
3.30912
3.31882
3.33073
3.34514
3.36234
3.38271
3.40562
3.43167
3.46136
3.49517
3.53363
3.5773
3.62679
3.68279
3.74603
3.81732
3.89755
3.98765
4.08866
4.20165
4.32776
4.46815
4.62395
4.7962
4.9857
5.19276
5.41689
5.65637
5.90883
6.16857
6.42455
6.65892
6.84354
6.9394
6.89749
6.66412
6.20984
5.6058
5.07853
5.02404
5.48284
6.69536
14.8511
13.6514
5.73236
5.07454
4.79299
4.54701
4.31549
4.10424
3.91812
3.75808
3.62267
3.50943
3.41552
3.33812
3.27465
3.22278
3.18054
3.14621
3.11838
3.09588
3.07773
3.06314
3.05146
3.04218
3.03487
3.0292
3.02491
3.0218
3.01972
3.01857
3.01827
3.01881
3.02016
3.02238
3.02551
3.02963
3.03487
3.04136
3.04928
3.05882
3.07022
3.08373
3.09965
3.11831
3.13991
3.16433
3.19213
3.22383
3.25994
3.30102
3.34769
3.40062
3.46058
3.5284
3.60501
3.69144
3.78885
3.89849
4.02179
4.16027
4.31562
4.4896
4.68403
4.90062
5.14076
5.40531
5.69429
6.00588
6.33471
6.66937
6.98875
7.25617
7.41352
7.37924
7.06156
6.43462
5.68396
5.24547
5.42295
6.52988
14.2493
14.0888
5.60402
4.81329
4.49018
4.22893
3.99375
3.78537
3.60557
3.45359
3.32706
3.22292
3.13804
3.0694
3.01431
2.9704
2.93566
2.90839
2.88719
2.87088
2.85852
2.84934
2.8427
2.83811
2.83516
2.83354
2.83299
2.83333
2.83442
2.83616
2.83848
2.84135
2.84477
2.84876
2.85339
2.85872
2.86486
2.87194
2.88012
2.8896
2.90058
2.91333
2.92811
2.94525
2.96509
2.98756
3.01311
3.04221
3.07537
3.11312
3.15606
3.20488
3.2603
3.32317
3.39444
3.47517
3.56655
3.66997
3.78698
3.91936
4.06916
4.2387
4.43057
4.64764
4.89297
5.16963
5.48041
5.82729
6.21021
6.62487
7.0594
7.48896
7.86698
8.11624
8.08887
7.62641
6.7587
5.89797
5.75417
6.74372
13.8815
14.4733
5.50584
4.59976
4.24401
3.97291
3.73679
3.53211
3.35846
3.21386
3.09526
2.99919
2.92226
2.86133
2.81362
2.77672
2.74861
2.7276
2.71226
2.70147
2.69428
2.68993
2.68782
2.68745
2.68844
2.69048
2.69334
2.69683
2.70082
2.7052
2.70993
2.71496
2.7203
2.72595
2.73197
2.73843
2.74541
2.75303
2.76145
2.77084
2.78141
2.7934
2.80706
2.82269
2.84063
2.86117
2.88439
2.9108
2.94086
2.97511
3.01413
3.05856
3.10912
3.16662
3.23199
3.30627
3.39067
3.48656
3.59555
3.7195
3.86063
4.02154
4.2053
4.41554
4.65649
4.93297
5.25026
5.61384
6.02803
6.4956
7.01411
7.57525
8.1614
8.70848
9.07231
9.0136
8.30548
7.097
6.44968
7.18998
13.7389
14.8521
5.43578
4.42439
4.0398
3.7608
3.52451
3.32344
3.15536
3.01734
2.90575
2.81681
2.7469
2.69278
2.65158
2.62089
2.59865
2.58317
2.57306
2.56719
2.56461
2.5646
2.56655
2.57
2.57455
2.57992
2.58588
2.59225
2.5989
2.60574
2.61271
2.61976
2.6269
2.63413
2.64149
2.64903
2.65685
2.66504
2.67373
2.68311
2.69335
2.7047
2.7174
2.73175
2.74807
2.76671
2.78778
2.8117
2.83892
2.86993
2.90529
2.94559
2.99153
3.04389
3.10352
3.17142
3.24874
3.3368
3.43712
3.55155
3.68225
3.83185
4.00357
4.20136
4.43007
4.69564
5.00521
5.36728
5.7891
6.28081
6.8497
7.505
8.24384
9.03689
9.79413
10.3024
10.1772
9.08834
7.61359
7.82534
13.9184
15.2651
5.39252
4.28078
3.86807
3.5811
3.34444
3.14655
2.98344
2.8513
2.74598
2.6634
2.59976
2.55169
2.5163
2.49113
2.47412
2.46358
2.45814
2.45666
2.45823
2.46212
2.46775
2.47464
2.48245
2.49087
2.49968
2.50872
2.51785
2.52699
2.53607
2.54507
2.55395
2.56274
2.57145
2.58014
2.58887
2.59773
2.60685
2.61639
2.62652
2.63747
2.6495
2.66289
2.67794
2.695
2.71433
2.73621
2.76106
2.78935
2.82158
2.85833
2.90024
2.94802
3.00248
3.06453
3.13522
3.21576
3.30755
3.41227
3.53191
3.66893
3.82636
4.00805
4.21885
4.465
4.75444
5.09713
5.50497
5.99293
6.57669
7.27488
8.101
9.05896
10.1211
11.1679
11.8659
11.5414
9.63638
8.82513
14.6539
15.7743
5.37751
4.16529
3.7228
3.42661
3.18886
2.9936
2.83494
2.70813
2.60851
2.53169
2.47371
2.4311
2.40091
2.38067
2.36833
2.36221
2.36093
2.36339
2.36869
2.37611
2.38507
2.39513
2.40592
2.41716
2.42863
2.44017
2.45166
2.46301
2.47415
2.48504
2.49568
2.50606
2.5162
2.52614
2.53594
2.54567
2.55544
2.56539
2.57571
2.5866
2.59833
2.61116
2.6254
2.64138
2.65946
2.67984
2.70292
2.72911
2.75889
2.79279
2.83139
2.87535
2.9254
2.98237
3.0472
3.12095
3.20486
3.3004
3.40931
3.53372
3.67632
3.84049
4.03065
4.25261
4.51407
4.8252
5.19969
5.65527
6.21445
6.90496
7.75524
8.79671
10.0489
11.4901
12.9736
13.9852
13.3541
10.7422
16.1647
16.4394
5.40312
4.07783
3.60059
3.29302
3.05331
2.86011
2.70548
2.58358
2.48922
2.41768
2.36483
2.32713
2.3016
2.28576
2.27757
2.27538
2.27782
2.28381
2.29247
2.30309
2.31511
2.32808
2.34164
2.35552
2.36951
2.38345
2.39721
2.41071
2.42388
2.43669
2.44911
2.46115
2.47283
2.48416
2.49521
2.50603
2.51672
2.5274
2.53824
2.54946
2.56131
2.57406
2.588
2.60345
2.62077
2.64023
2.66214
2.6869
2.71493
2.7467
2.78277
2.82371
2.8702
2.92295
2.98281
3.0507
3.12769
3.21502
3.31416
3.42688
3.5554
3.70253
3.87195
4.06855
4.29901
4.57254
4.90189
5.30492
5.80628
6.43942
7.24836
8.28742
9.61369
11.2799
13.303
15.5011
17.0383
15.3689
18.3974
17.4114
5.44633
4.01269
3.49743
3.17654
2.93486
2.74403
2.5932
2.4759
2.38638
2.31965
2.27142
2.23809
2.21667
2.20471
2.20018
2.20145
2.20721
2.21637
2.22807
2.24162
2.25646
2.27214
2.28832
2.30471
2.32111
2.33736
2.35334
2.36896
2.38415
2.39889
2.41316
2.42694
2.44025
2.45312
2.46559
2.47772
2.48959
2.50131
2.51302
2.52495
2.53734
2.55046
2.5646
2.58005
2.59715
2.61624
2.6376
2.66155
2.6885
2.71886
2.75313
2.79184
2.83557
2.88497
2.94077
3.00377
3.07489
3.15515
3.24578
3.34822
3.4642
3.59595
3.74633
3.91916
4.11967
4.35522
4.63628
4.97798
5.40247
5.94232
6.64546
7.58101
8.84575
10.5642
12.8735
15.9066
19.6394
23.2376
22.183
18.712
5.64752
3.98707
3.4205
3.07815
2.83274
2.64509
2.49828
2.38532
2.30023
2.23778
2.19359
2.16404
2.14617
2.13754
2.13619
2.1405
2.14919
2.1612
2.17568
2.19194
2.20942
2.22767
2.24634
2.26515
2.28389
2.30239
2.32053
2.33824
2.35545
2.37212
2.38824
2.40379
2.41881
2.43331
2.44734
2.46095
2.47421
2.48723
2.50013
2.51313
2.52645
2.54037
2.55514
2.57107
2.58847
2.6077
2.62904
2.65277
2.67924
2.70884
2.74198
2.77915
2.82087
2.8677
2.92029
2.97931
3.04555
3.11987
3.20328
3.29692
3.40217
3.5207
3.65462
3.80672
3.9808
4.18215
4.41835
4.70043
5.04485
5.47662
6.03472
6.78103
7.81545
9.29837
11.4842
14.7651
19.7722
27.8394
44.3769
14.3342
5.59891
3.98266
3.36799
3.00118
2.74805
2.56295
2.42188
2.3136
2.23263
2.17392
2.13316
2.10677
2.09186
2.08606
2.08743
2.09441
2.10573
2.12034
2.13739
2.1562
2.17619
2.1969
2.21797
2.2391
2.26008
2.28074
2.30096
2.32067
2.33981
2.35834
2.37625
2.39354
2.41023
2.42635
2.44195
2.45711
2.47191
2.48641
2.50074
2.51508
2.52965
2.54471
2.5605
2.57732
2.59546
2.61527
2.63706
2.66107
2.6876
2.71697
2.74957
2.78582
2.82616
2.87111
2.9212
2.97702
3.03923
3.10858
3.18589
3.2721
3.36829
3.47569
3.59584
3.73067
3.88274
4.05557
4.25411
4.48538
4.75965
5.09218
5.50631
6.03879
6.74958
7.73999
9.18652
11.3966
14.8748
20.429
29.2144
10.6462
5.34624
3.94903
3.32055
2.94236
2.68389
2.50073
2.36569
2.26342
2.18689
2.13171
2.09392
2.07021
2.05779
2.0544
2.05817
2.06755
2.08127
2.09831
2.1178
2.13903
2.16142
2.18449
2.20782
2.23112
2.25416
2.27677
2.29885
2.32032
2.34114
2.36128
2.38075
2.39954
2.41769
2.43525
2.45231
2.46897
2.48529
2.50131
2.51716
2.53298
2.54899
2.56543
2.58253
2.60055
2.61977
2.64053
2.66316
2.68786
2.71487
2.74448
2.777
2.81281
2.85231
2.89592
2.9441
2.99733
3.05618
3.12129
3.19338
3.27322
3.36168
3.45971
3.56841
3.68903
3.82325
3.97329
4.14215
4.33391
4.55413
4.81055
5.11395
5.47931
5.92719
6.485
7.18669
8.06732
9.14965
10.4101
11.7099
8.35304
5.0178
3.86886
3.27302
2.90213
2.64559
2.46434
2.33451
2.23925
2.16849
2.11745
2.0828
2.06169
2.05164
2.05053
2.05657
2.06824
2.08427
2.10361
2.1254
2.1489
2.17351
2.19868
2.22398
2.24906
2.27369
2.29772
2.32109
2.34374
2.36566
2.38683
2.40728
2.42703
2.44613
2.46473
2.48295
2.50086
2.51848
2.53586
2.5531
2.57035
2.58779
2.60566
2.62418
2.6436
2.66414
2.68612
2.70987
2.73555
2.76334
2.7935
2.82629
2.86202
2.90103
2.94373
2.99044
3.04151
3.09744
3.15879
3.22623
3.30045
3.38213
3.47204
3.57101
3.67979
3.79939
3.93123
4.07712
4.23932
4.4206
4.62448
4.85527
5.11785
5.41717
5.75728
6.14015
6.56061
7.00023
7.42049
7.74648
6.79051
4.69847
3.77264
3.24024
2.89006
2.64303
2.46654
2.34047
2.25166
2.18863
2.14354
2.11307
2.09519
2.08792
2.08936
2.09781
2.11183
2.13004
2.15143
2.17514
2.20044
2.22669
2.25329
2.27973
2.30561
2.3307
2.3549
2.37824
2.40076
2.42252
2.44353
2.4638
2.48347
2.5027
2.52166
2.54041
2.55897
2.57738
2.59568
2.61394
2.63229
2.6509
2.66998
2.68978
2.71052
2.73245
2.75582
2.78084
2.80766
2.83643
2.86734
2.90062
2.93651
2.97529
3.01723
3.06261
3.11169
3.16485
3.22267
3.28582
3.35484
3.43027
3.51278
3.60325
3.70178
3.80889
3.92561
4.05313
4.19285
4.34588
4.5137
4.6979
4.89967
5.11889
5.35253
5.59546
5.83901
6.06547
6.24834
6.36292
5.73644
4.42676
3.70269
3.24435
2.92572
2.69608
2.52996
2.41117
2.32903
2.27443
2.23715
2.21228
2.19871
2.19507
2.19954
2.21041
2.22623
2.24581
2.26818
2.29252
2.3181
2.34423
2.37028
2.39571
2.4202
2.44322
2.46491
2.48552
2.50534
2.52458
2.54322
2.56146
2.57948
2.59749
2.61552
2.6336
2.65175
2.67
2.68836
2.70688
2.72566
2.74483
2.76459
2.78515
2.80677
2.82972
2.85426
2.8805
2.90841
2.93808
2.9697
3.00342
3.03946
3.078
3.11926
3.16341
3.21055
3.26107
3.3157
3.37497
3.43927
3.50901
3.58463
3.66657
3.75516
3.85082
3.95414
4.06595
4.18764
4.31885
4.4602
4.61248
4.77562
4.94852
5.12706
5.30481
5.47331
5.62103
5.73251
5.79215
5.09286
4.26119
3.7095
3.32784
3.05167
2.85155
2.70854
2.60719
2.53705
2.49031
2.45889
2.43869
2.42828
2.42616
2.43087
2.4409
2.45502
2.47217
2.49178
2.51303
2.53522
2.55762
2.57955
2.6003
2.61848
2.63429
2.64825
2.66102
2.67357
2.68679
2.70019
2.71381
2.72776
2.74224
2.75726
2.7728
2.78886
2.80543
2.82251
2.8401
2.85825
2.87705
2.89664
2.91719
2.93893
2.96212
2.98713
3.01383
3.04225
3.07244
3.10441
3.13817
3.17395
3.2119
3.25216
3.29485
3.34013
3.38825
3.43994
3.49546
3.55517
3.6194
3.68847
3.7627
3.84234
3.92768
4.01901
4.11672
4.22133
4.33314
4.45296
4.58151
4.71849
4.86207
5.00668
5.1483
5.28075
5.39552
5.48196
5.52961
4.80638
4.26923
3.86575
3.57239
3.35456
3.19648
3.08361
2.9993
2.9342
2.88466
2.84708
2.82071
2.80308
2.79275
2.78841
2.78907
2.79383
2.80186
2.81259
2.8253
2.83925
2.8537
2.86773
2.88068
2.89153
2.90078
2.90832
2.91428
2.91923
2.92405
2.92894
2.93417
2.94031
2.94822
2.95756
2.96809
2.97981
2.99273
3.00678
3.02191
3.03809
3.05532
3.07366
3.09322
3.11419
3.13678
3.16126
3.18731
3.21507
3.24457
3.27577
3.30877
3.34364
3.38032
3.41896
3.45977
3.50297
3.54895
3.59794
3.64972
3.70478
3.76341
3.82592
3.89255
3.96349
4.03888
4.11888
4.20364
4.29371
4.3899
4.49275
4.60202
4.71683
4.83551
4.95522
5.07248
5.18248
5.27878
5.35362
5.39945
4.84818
4.50129
4.22927
4.03149
3.87579
3.74448
3.63082
3.53591
3.45602
3.38892
3.33588
3.29485
3.26339
3.23975
3.22253
3.21064
3.20317
3.1994
3.19847
3.19972
3.20248
3.20617
3.21017
3.21435
3.21916
3.2238
3.22764
3.23037
3.2317
3.23125
3.22991
3.22827
3.22689
3.2265
3.2274
3.22993
3.23458
3.24164
3.25076
3.26178
3.27456
3.28896
3.30493
3.32251
3.34184
3.36318
3.38607
3.4104
3.4362
3.46353
3.49251
3.52326
3.55571
3.58989
3.62595
3.66398
3.70416
3.74692
3.79204
3.83968
3.89008
3.943
3.99878
4.05767
4.11976
4.18521
4.25419
4.32714
4.40467
4.48713
4.57452
4.66654
4.76244
4.86089
4.95989
5.05674
5.14783
5.22848
5.29324
5.3368
5.15073
4.92997
4.75047
4.59654
4.45974
4.33954
4.23204
4.13589
4.05017
3.97536
3.91265
3.86007
3.81604
3.77923
3.74848
3.72282
3.70145
3.68365
3.66874
3.65618
3.64541
3.63612
3.62818
3.62123
3.61506
3.60933
3.60393
3.59902
3.59451
3.59002
3.58541
3.58064
3.57562
3.57004
3.56477
3.56063
3.55829
3.55831
3.56099
3.56676
3.57514
3.58579
3.59854
3.61334
3.63031
3.64931
3.66958
3.69112
3.71394
3.73805
3.76352
3.79039
3.81875
3.8488
3.88059
3.9141
3.94939
3.98666
4.02611
4.06813
4.11241
4.15898
4.20792
4.25898
4.31223
4.36807
4.4267
4.48856
4.55389
4.62284
4.69541
4.7713
4.84986
4.93001
5.01025
5.08858
5.16235
5.22824
5.28245
5.32121
5.62352
5.45996
5.31642
5.18981
5.07491
4.9689
4.87001
4.7781
4.69391
4.61815
4.55034
4.48977
4.43573
4.38754
4.34444
4.30572
4.27082
4.23918
4.21029
4.18378
4.15933
4.1366
4.11528
4.0952
4.07618
4.05829
4.04193
4.02713
4.01364
4.00128
3.9899
3.9794
3.96974
3.96087
3.95298
3.94623
3.94066
3.93649
3.93466
3.93607
3.94046
3.94743
3.95679
3.96857
3.98262
3.99787
4.01425
4.03174
4.05032
4.07
4.09082
4.11281
4.13602
4.16054
4.18642
4.21373
4.24254
4.27307
4.30537
4.33953
4.37562
4.41402
4.45444
4.49677
4.5412
4.58765
4.63585
4.68616
4.73892
4.79427
4.85215
4.91231
4.97421
5.03702
5.09962
5.1605
5.21775
5.26904
5.3117
5.34307
6.2013
6.06331
5.94024
5.82787
5.72419
5.62732
5.53527
5.44729
5.36474
5.28824
5.21718
5.15067
5.08858
5.03097
4.97752
4.92773
4.88125
4.83772
4.79675
4.75801
4.7212
4.68606
4.65217
4.61972
4.58895
4.5602
4.53368
4.50924
4.48681
4.4663
4.44764
4.43075
4.4156
4.40219
4.39069
4.38121
4.37382
4.36876
4.36646
4.36626
4.36825
4.37237
4.3789
4.38727
4.39659
4.40682
4.41794
4.42994
4.44284
4.45667
4.47143
4.48718
4.50395
4.5218
4.54076
4.56088
4.58219
4.60477
4.6287
4.65401
4.68076
4.70902
4.73884
4.77045
4.80386
4.83876
4.87535
4.91372
4.95382
4.99548
5.03867
5.08332
5.12905
5.17522
5.22097
5.2652
5.30653
5.34333
5.37372
5.39583
6.88092
6.75404
6.63346
6.52127
6.4194
6.32477
6.23363
6.14434
6.0577
5.97527
5.89719
5.82344
5.7539
5.68842
5.62667
5.56828