/*--------------------------------*- C++ -*----------------------------------*\
| =========                 |                                                 |
| \\      /  F ield         | OpenFOAM: The Open Source CFD Toolbox           |
|  \\    /   O peration     | Version:  v2012                                 |
|   \\  /    A nd           | Website:  www.openfoam.com                      |
|    \\/     M anipulation  |                                                 |
\*---------------------------------------------------------------------------*/
FoamFile
{
    version     2.0;
    format      ascii;
    class       volScalarField;
    location    "501";
    object      p;
}
// * * * * * * * * * * * * * * * * * * * * * * * * * * * * * * * * * * * * * //

dimensions      [0 2 -2 0 0 0 0];


internalField   nonuniform List<scalar> 
6556
(
0.392456
0.391834
0.391497
0.391355
0.391294
0.391294
0.391354
0.391496
0.391833
0.392455
0.391762
0.391585
0.391412
0.391305
0.391255
0.391255
0.391305
0.391412
0.391585
0.391761
0.391283
0.391298
0.39123
0.391154
0.391119
0.391118
0.391154
0.391229
0.391297
0.391282
0.390992
0.391048
0.391013
0.390958
0.390933
0.390933
0.390957
0.391012
0.391047
0.390991
0.390758
0.390819
0.390795
0.390751
0.390731
0.39073
0.39075
0.390794
0.390817
0.390756
0.390534
0.390591
0.390573
0.390537
0.390519
0.390518
0.390535
0.39057
0.390588
0.390532
0.390315
0.390365
0.390346
0.390314
0.390299
0.390298
0.390312
0.390342
0.390361
0.390311
0.3901
0.390142
0.390122
0.390092
0.390077
0.390076
0.390088
0.390116
0.390135
0.390093
0.389887
0.389922
0.3899
0.389871
0.389856
0.389854
0.389865
0.38989
0.389911
0.389876
0.389674
0.389703
0.389679
0.389651
0.389635
0.389632
0.389641
0.389666
0.389687
0.389658
0.389462
0.389486
0.389461
0.389432
0.389415
0.389411
0.389418
0.38944
0.389462
0.389438
0.389252
0.389272
0.389245
0.389215
0.389196
0.389189
0.389194
0.389214
0.389236
0.389216
0.389045
0.389062
0.389033
0.389
0.388978
0.388967
0.388969
0.388985
0.389006
0.38899
0.388844
0.388857
0.388825
0.388789
0.388761
0.388744
0.38874
0.388753
0.388773
0.38876
0.388651
0.388661
0.388625
0.388581
0.388544
0.388518
0.388507
0.388515
0.388535
0.388525
0.388471
0.388477
0.388434
0.388379
0.388328
0.388286
0.388264
0.388267
0.388288
0.388283
0.388311
0.388313
0.388259
0.388186
0.388111
0.388046
0.388004
0.387999
0.38803
0.388038
0.388182
0.388178
0.388108
0.388008
0.387897
0.387791
0.387714
0.387698
0.387754
0.387799
0.3881
0.388089
0.387996
0.387853
0.387684
0.387509
0.387359
0.3873
0.387407
0.387638
0.38809
0.388069
0.387946
0.387744
0.387489
0.387202
0.38692
0.386787
0.387
0.3877
0.388183
0.388154
0.387992
0.387711
0.387333
0.386868
0.386308
0.385736
0.385103
0.381168
0.388422
0.388388
0.388186
0.387822
0.387316
0.386676
0.385832
0.384651
0.384043
0.386259
0.388856
0.388824
0.388587
0.388143
0.387515
0.386729
0.385752
0.384268
0.38237
0.384162
0.389537
0.389514
0.389244
0.388722
0.387971
0.38702
0.385879
0.384209
0.381271
0.381683
0.390517
0.390507
0.390204
0.389602
0.388723
0.387595
0.386248
0.384499
0.381283
0.380841
0.391851
0.391857
0.39152
0.390831
0.389817
0.388506
0.386934
0.385042
0.381629
0.38012
0.393599
0.393622
0.393246
0.392457
0.391288
0.389768
0.387925
0.385801
0.382234
0.379398
0.395827
0.395867
0.395445
0.394539
0.393186
0.391416
0.389239
0.386743
0.382981
0.379001
0.398608
0.398665
0.398191
0.397149
0.395582
0.393523
0.390964
0.387959
0.383862
0.379377
0.402034
0.402115
0.401572
0.400374
0.398569
0.396193
0.393249
0.389754
0.385246
0.380466
0.406194
0.406301
0.405676
0.404307
0.402238
0.399516
0.396165
0.392206
0.387368
0.38221
0.411182
0.411309
0.410596
0.409036
0.406673
0.403559
0.399743
0.395277
0.390104
0.384502
0.41711
0.417255
0.416441
0.414662
0.411962
0.4084
0.404043
0.398991
0.393336
0.38726
0.424102
0.424264
0.423331
0.421299
0.418212
0.414138
0.409157
0.403407
0.3971
0.390443
0.432291
0.432466
0.431394
0.429075
0.425549
0.42089
0.415193
0.408625
0.401487
0.394071
0.441815
0.442001
0.440772
0.438132
0.434114
0.428797
0.422287
0.414777
0.406629
0.398257
0.452819
0.453015
0.451612
0.448621
0.444067
0.438026
0.430613
0.422042
0.412721
0.403188
0.465446
0.465653
0.464062
0.4607
0.455575
0.448761
0.440377
0.430647
0.420013
0.409122
0.479829
0.480046
0.478261
0.474516
0.468806
0.461195
0.4518
0.440854
0.428816
0.416415
0.496083
0.496309
0.494324
0.490197
0.483906
0.475503
0.4651
0.45293
0.439457
0.425458
0.514285
0.514514
0.512327
0.507829
0.500983
0.491824
0.480459
0.467112
0.452238
0.436628
0.534455
0.534679
0.532292
0.527444
0.520085
0.510234
0.497993
0.48357
0.4674
0.450249
0.556553
0.556761
0.554172
0.548995
0.541177
0.530723
0.517726
0.502379
0.485083
0.46655
0.580466
0.580638
0.577839
0.572352
0.564135
0.553177
0.539569
0.523487
0.505289
0.485615
0.606001
0.60611
0.60308
0.597293
0.588731
0.577372
0.563306
0.546699
0.52786
0.507343
0.632881
0.632887
0.629593
0.623499
0.614633
0.602968
0.588596
0.571673
0.552465
0.531438
0.660742
0.660596
0.656987
0.65056
0.641416
0.629524
0.614983
0.59794
0.578625
0.557417
0.689136
0.68878
0.684788
0.677985
0.668573
0.65652
0.641927
0.624938
0.605746
0.584659
0.71753
0.716896
0.712441
0.705209
0.695534
0.68338
0.668841
0.652054
0.633182
0.612465
0.745288
0.744304
0.739305
0.731604
0.721688
0.709505
0.695128
0.678681
0.660292
0.64014
0.771654
0.770242
0.764648
0.756488
0.746402
0.734304
0.720225
0.70426
0.686497
0.667063
0.795678
0.793778
0.787649
0.779156
0.769062
0.757234
0.743635
0.728319
0.711326
0.692732
0.816152
0.813769
0.807376
0.798878
0.789089
0.777824
0.764963
0.750501
0.734434
0.716788
0.831137
0.829308
0.823246
0.815114
0.80604
0.795741
0.783944
0.770579
0.755603
0.739004
0.838791
0.838599
0.834259
0.827402
0.819676
0.810835
0.800469
0.788455
0.774732
0.759264
0.840984
0.84165
0.83984
0.83548
0.829944
0.82311
0.814548
0.804116
0.791763
0.777458
0.841249
0.841596
0.841389
0.839847
0.837086
0.832723
0.82631
0.817672
0.806772
0.793622
0.841226
0.840837
0.841036
0.841637
0.841583
0.839842
0.835775
0.829073
0.819682
0.807655
0.841854
0.840994
0.84107
0.842641
0.84465
0.845241
0.84321
0.838135
0.830063
0.818982
0.842971
0.842487
0.842878
0.844903
0.847863
0.850128
0.849951
0.846477
0.840068
0.830501
0.359861
0.362825
0.364695
0.366515
0.368099
0.369337
0.370106
0.370272
0.36993
0.369119
0.36788
0.366404
0.364805
0.36317
0.361685
0.360527
0.359789
0.35953
0.359789
0.360548
0.361681
0.362952
0.364024
0.36461
0.364803
0.368053
0.364353
0.363851
0.364786
0.36596
0.367029
0.367801
0.368072
0.367728
0.366858
0.365639
0.364227
0.362758
0.361359
0.360157
0.359243
0.358697
0.358569
0.358895
0.35966
0.360788
0.362129
0.363453
0.364393
0.364821
0.368359
0.364815
0.36363
0.363853
0.364558
0.365282
0.365807
0.365931
0.365563
0.364792
0.363748
0.362514
0.361212
0.359997
0.358988
0.358253
0.357841
0.357774
0.358063
0.358699
0.359635
0.360787
0.362028
0.363154
0.363935
0.366761
0.363702
0.362575
0.362685
0.363357
0.36404
0.364504
0.364574
0.364167
0.36338
0.362357
0.361173
0.359929
0.358777
0.35784
0.357177
0.356817
0.356768
0.357027
0.357575
0.358368
0.359333
0.36037
0.361385
0.362274
0.367009
0.362651
0.361007
0.361078
0.361913
0.362706
0.363247
0.363358
0.362987
0.362221
0.361195
0.360014
0.358798
0.35769
0.356795
0.356171
0.355834
0.35578
0.355998
0.356464
0.35714
0.35796
0.358836
0.359693
0.360567
0.36812
0.362376
0.359774
0.359679
0.360496
0.361374
0.362023
0.362228
0.361937
0.361226
0.360219
0.359047
0.357848
0.356767
0.355906
0.355315
0.355
0.354944
0.355126
0.355521
0.356091
0.356783
0.357521
0.358212
0.358946
0.368634
0.362569
0.359427
0.358959
0.359511
0.360346
0.361013
0.361298
0.361095
0.360448
0.359466
0.358303
0.357123
0.356071
0.355244
0.354687
0.354396
0.354343
0.354499
0.354835
0.355313
0.355889
0.356493
0.357023
0.357596
0.368911
0.363279
0.360048
0.359036
0.359179
0.35983
0.360442
0.360725
0.360566
0.35997
0.359011
0.357856
0.356689
0.355661
0.354869
0.354346
0.354079
0.354034
0.354171
0.35446
0.354865
0.355342
0.355833
0.35623
0.356661
0.370028
0.364633
0.361349
0.359904
0.359677
0.36006
0.360519
0.360706
0.360495
0.359924
0.358961
0.357786
0.356611
0.355586
0.354812
0.354312
0.354065
0.354029
0.354156
0.354413
0.354763
0.355166
0.355566
0.355864
0.356171
0.372002
0.366695
0.363331
0.361585
0.36104
0.361142
0.361383
0.361407
0.361071
0.360381
0.359386
0.358148
0.356927
0.35587
0.355084
0.354588
0.354352
0.354324
0.354448
0.354686
0.354999
0.355347
0.355676
0.355898
0.356106
0.374515
0.369311
0.36591
0.363967
0.363151
0.362973
0.362991
0.362854
0.362383
0.361522
0.360379
0.359008
0.35768
0.356527
0.355678
0.355151
0.354909
0.354886
0.355013
0.355245
0.35554
0.355855
0.356131
0.356297
0.356422
0.377359
0.372304
0.368902
0.366843
0.365826
0.365422
0.365221
0.364888
0.36428
0.363318
0.361989
0.360463
0.35892
0.357585
0.356595
0.355976
0.355692
0.355666
0.355802
0.35604
0.356334
0.356636
0.356883
0.356999
0.35704
0.380416
0.375455
0.372062
0.369949
0.368814
0.368258
0.367889
0.367405
0.366648
0.365568
0.364194
0.362586
0.360733
0.359104
0.357867
0.357072
0.356683
0.356618
0.356756
0.357006
0.357314
0.357629
0.357873
0.357934
0.357836
0.383611
0.378611
0.375193
0.373037
0.371826
0.37117
0.370703
0.370144
0.369335
0.368223
0.366831
0.365193
0.363263
0.361246
0.359624
0.3585
0.357904
0.357728
0.357828
0.358077
0.358406
0.358764
0.35908
0.359104
0.358566
0.386943
0.381689
0.378139
0.375901
0.374605
0.37388
0.373371
0.372808
0.372042
0.371025
0.369704
0.368096
0.366294
0.364224
0.362134
0.360505
0.35945
0.35901
0.359017
0.359241
0.359562
0.359934
0.360319
0.360389
0.359078
0.39054
0.384779
0.380854
0.37839
0.376962
0.376172
0.375639
0.375103
0.374438
0.373627
0.37257
0.371168
0.369487
0.367643
0.365515
0.363502
0.361855
0.360704
0.360202
0.360291
0.360603
0.36095
0.361342
0.361791
0.362389
0.394578
0.388041
0.383463
0.380558
0.378887
0.377961
0.377373
0.376854
0.376314
0.375722
0.374956
0.373925
0.372628
0.371079
0.369484
0.367694
0.36586
0.364063
0.362645
0.361786
0.361499
0.361754
0.362512
0.363758
0.365373
0.399305
0.391692
0.386226
0.382654
0.380531
0.379332
0.378622
0.378095
0.377636
0.377192
0.37668
0.376029
0.375242
0.374359
0.37342
0.372412
0.37128
0.370269
0.369321
0.368338
0.367649
0.367526
0.368162
0.369888
0.373009
0.405134
0.396137
0.38948
0.384962
0.382135
0.380475
0.379517
0.378916
0.378473
0.378114
0.377784
0.377456
0.377134
0.37684
0.376644
0.37658
0.376635
0.376934
0.37734
0.377893
0.378722
0.379941
0.381477
0.383863
0.38752
0.412527
0.401877
0.393692
0.387889
0.384059
0.381683
0.380273
0.379439
0.37893
0.378613
0.378395
0.378271
0.378277
0.378427
0.378751
0.379329
0.380227
0.381467
0.382998
0.384795
0.386847
0.38911
0.391503
0.394064
0.396814
0.421934
0.409426
0.399411
0.391978
0.386807
0.383406
0.381275
0.379991
0.379239
0.378831
0.378663
0.378686
0.378906
0.379334
0.379986
0.380927
0.382243
0.383976
0.386042
0.388338
0.390819
0.393449
0.39613
0.398732
0.401139
0.43378
0.419297
0.407221
0.397844
0.390984
0.386217
0.383054
0.381046
0.379839
0.379173
0.378895
0.378932
0.379269
0.379891
0.380786
0.381952
0.383436
0.385317
0.387566
0.390032
0.392604
0.395242
0.397882
0.400418
0.402737
0.448406
0.431951
0.417688
0.406119
0.397248
0.390764
0.386224
0.383177
0.381233
0.380088
0.379529
0.379427
0.379723
0.380392
0.381424
0.3828
0.384484
0.386447
0.388673
0.391077
0.39356
0.396062
0.398533
0.400909
0.403108
0.466008
0.447719
0.431281
0.417388
0.406254
0.397727
0.391454
0.387015
0.384007
0.382089
0.380998
0.380553
0.380644
0.381218
0.38226
0.383747
0.385567
0.387576
0.38972
0.391991
0.394337
0.396684
0.39898
0.401177
0.403221
0.486582
0.466732
0.448295
0.432102
0.418575
0.407754
0.399422
0.393232
0.3888
0.385769
0.383837
0.382773
0.382422
0.382701
0.383596
0.385013
0.386753
0.388669
0.39072
0.392898
0.395132
0.397346
0.399499
0.401546
0.403446
0.509896
0.488867
0.468764
0.450479
0.434602
0.421373
0.410745
0.402485
0.396271
0.391758
0.388628
0.386613
0.385508
0.385203
0.385666
0.386727
0.388161
0.389876
0.391815
0.393894
0.39602
0.398127
0.400162
0.402078
0.403858
0.535492
0.513726
0.492411
0.472417
0.454434
0.43887
0.425858
0.415315
0.407017
0.400674
0.395976
0.392636
0.390408
0.389153
0.388816
0.389247
0.390229
0.39161
0.393286
0.395151
0.397106
0.39907
0.400974
0.402777
0.404463
0.562722
0.54067
0.51865
0.497453
0.477785
0.460165
0.444884
0.432013
0.42146
0.413021
0.406435
0.40142
0.397704
0.395092
0.393601
0.393174
0.393498
0.394318
0.395514
0.396988
0.398633
0.400351
0.402062
0.403707
0.405271
0.590834
0.568892
0.546656
0.524796
0.503974
0.484749
0.467514
0.452479
0.439686
0.429044
0.420372
0.413435
0.407974
0.403731
0.400672
0.398965
0.398377
0.398433
0.39894
0.399819
0.400972
0.402286
0.403671
0.405055
0.406391
0.619058
0.597536
0.575486
0.553454
0.532016
0.511713
0.492983
0.476131
0.461312
0.448551
0.437767
0.428803
0.421456
0.415492
0.410709
0.407234
0.405204
0.404243
0.4039
0.404002
0.404456
0.405171
0.406055
0.40703
0.408027
0.646699
0.625809
0.604229
0.582396
0.560795
0.539912
0.520184
0.501959
0.485472
0.470845
0.458095
0.447155
0.437897
0.430154
0.423741
0.418543
0.414636
0.412012
0.410439
0.40961
0.409245
0.409213
0.409442
0.409848
0.410353
0.673197
0.653064
0.632121
0.61072
0.589266
0.568186
0.547886
0.528723
0.510975
0.494829
0.480383
0.46765
0.456582
0.447083
0.439031
0.4323
0.426761
0.422376
0.419117
0.41681
0.415244
0.414267
0.413744
0.413502
0.41342
0.698155
0.678837
0.658599
0.637737
0.616595
0.595549
0.574972
0.555212
0.536561
0.519244
0.503413
0.489147
0.476461
0.46532
0.455655
0.447379
0.44039
0.434588
0.429823
0.425982
0.42302
0.420803
0.419162
0.417962
0.417096
0.721317
0.702824
0.683291
0.662977
0.642191
0.621275
0.600577
0.580431
0.561133
0.542926
0.525995
0.510462
0.496392
0.483797
0.472653
0.462903
0.454474
0.447276
0.441198
0.436135
0.431973
0.428554
0.425746
0.4235
0.421753
0.74254
0.724845
0.705962
0.68614
0.665669
0.644875
0.624098
0.603662
0.583864
0.564956
0.547141
0.530571
0.515341
0.501502
0.489062
0.477994
0.468247
0.45975
0.452415
0.446141
0.44082
0.436337
0.432586
0.429478
0.426917
0.761667
0.744699
0.726377
0.706955
0.68672
0.665995
0.64512
0.624422
0.604197
0.584705
0.56616
0.548731
0.532536
0.517651
0.504108
0.491906
0.481013
0.471375
0.46292
0.45556
0.449202
0.443745
0.439086
0.435128
0.431777
0.778694
0.762336
0.744423
0.725227
0.705059
0.684273
0.663226
0.642244
0.62162
0.601613
0.582446
0.564296
0.547299
0.531544
0.517084
0.503933
0.492078
0.48148
0.472078
0.463799
0.456557
0.45026
0.444813
0.440122
0.436093
0.793478
0.777561
0.759882
0.74079
0.72062
0.699721
0.678467
0.657202
0.636216
0.615767
0.596078
0.577336
0.559684
0.543223
0.528017
0.514095
0.501455
0.49007
0.47989
0.47085
0.462876
0.455881
0.449776
0.44447
0.439876
0.805261
0.789547
0.771949
0.752828
0.732558
0.711517
0.690059
0.668514
0.647181
0.626326
0.606178
0.586931
0.568734
0.5517
0.5359
0.521375
0.50813
0.496147
0.485382
0.475778
0.467265
0.459761
0.453178
0.447427
0.442411
0.817675
0.802247
0.784754
0.765614
0.745199
0.723895
0.702079
0.680099
0.658269
0.636867
0.616133
0.596269
0.577435
0.559753
0.543305
0.528137
0.514263
0.501669
0.490324
0.480176
0.471156
0.463186
0.456179
0.45005
0.444716
0.35633
0.356207
0.356193
0.362747
0.362716
0.366926
0.367553
0.37258
0.380447
0.377081
0.38321
0.390162
0.391352
0.394785
0.39806
0.399378
0.401526
0.403371
0.40316
0.404826
0.406238
0.404637
0.406162
0.407434
0.404939
0.406424
0.407671
0.404949
0.406378
0.407606
0.405067
0.406422
0.407604
0.405381
0.406654
0.407769
0.405895
0.407077
0.408118
0.406614
0.407714
0.408665
0.407553
0.408549
0.409436
0.408929
0.409707
0.410418
0.410867
0.411348
0.411809
0.413447
0.413532
0.41365
0.41651
0.416114
0.415823
0.420468
0.419499
0.418693
0.424933
0.423363
0.422002
0.429121
0.426993
0.425135
0.432858
0.430243
0.427946
0.43616
0.433127
0.430449
0.438304
0.434959
0.432003
0.440282
0.436605
0.43342
0.431925
0.43188
0.431782
0.431446
0.430605
0.429263
0.427544
0.425574
0.423462
0.421292
0.419124
0.417
0.414947
0.412981
0.411113
0.409348
0.407687
0.406129
0.404673
0.403316
0.402055
0.400885
0.399804
0.398809
0.397895
0.397062
0.396305
0.395624
0.395016
0.394482
0.39402
0.393631
0.393316
0.393076
0.392912
0.392827
0.392824
0.39291
0.393088
0.393361
0.393732
0.394206
0.394795
0.395509
0.396353
0.397332
0.398454
0.399728
0.40116
0.402758
0.404525
0.406465
0.408577
0.410858
0.413297
0.41588
0.418579
0.421358
0.424164
0.42693
0.429572
0.431967
0.433948
0.435351
0.436129
0.436403
0.436089
0.435136
0.43365
0.431606
0.429087
0.426477
0.424101
0.422174
0.420987
0.420804
0.421679
0.423217
0.424588
0.425227
0.432039
0.431921
0.431775
0.431245
0.430219
0.4288
0.427067
0.425128
0.423071
0.420967
0.418867
0.416808
0.414814
0.4129
0.411076
0.409348
0.407718
0.406185
0.404749
0.403408
0.402158
0.400997
0.399922
0.39893
0.398017
0.397181
0.396421
0.395733
0.395118
0.394573
0.394099
0.393695
0.393362
0.393102
0.392915
0.392806
0.392775
0.392824
0.392958
0.393183
0.393505
0.39393
0.394461
0.395102
0.395862
0.39675
0.397772
0.398933
0.400241
0.401699
0.403311
0.405078
0.407
0.409071
0.411281
0.413614
0.416046
0.418544
0.421062
0.423542
0.425913
0.428082
0.429928
0.431339
0.432295
0.432842
0.432866
0.432188
0.430768
0.42875
0.426326
0.423841
0.421654
0.41995
0.418968
0.418898
0.419846
0.421622
0.423571
0.424765
0.432169
0.431753
0.431203
0.43032
0.429094
0.427603
0.425899
0.424049
0.422114
0.420141
0.418169
0.416228
0.414338
0.412516
0.410772
0.409111
0.407538
0.406054
0.404659
0.403352
0.40213
0.400992
0.399936
0.398958
0.398056
0.397228
0.396472
0.395787
0.39517
0.394621
0.394139
0.393725
0.393379
0.393102
0.392895
0.392761
0.392702
0.392721
0.39282
0.393004
0.393279
0.393649
0.39412
0.394696
0.395383
0.396188
0.397117
0.398176
0.399369
0.4007
0.402173
0.403787
0.405541
0.40743
0.409443
0.411567
0.413778
0.416048
0.418338
0.420598
0.422774
0.424804
0.426602
0.428039
0.42904
0.429608
0.429672
0.429131
0.427988
0.426331
0.424285
0.422127
0.420199
0.418737
0.417885
0.417726
0.418315
0.419584
0.42126
0.422717
0.431635
0.430925
0.430064
0.428974
0.427653
0.426148
0.4245
0.422751
0.420937
0.419094
0.41725
0.415429
0.413651
0.411928
0.410272
0.408689
0.407184
0.40576
0.404416
0.403153
0.40197
0.400864
0.399834
0.398878
0.397994
0.397179
0.396432
0.395752
0.395136
0.394585
0.394098
0.393674
0.393314
0.393019
0.392791
0.39263
0.392539
0.392521
0.392579
0.392717
0.39294
0.39325
0.393654
0.394156
0.394762
0.395477
0.396307
0.397258
0.398333
0.399537
0.400872
0.402339
0.403937
0.405662
0.407505
0.409455
0.411494
0.413597
0.415733
0.417861
0.419935
0.421907
0.423727
0.425288
0.426437
0.427095
0.427232
0.426813
0.425873
0.42452
0.422837
0.420972
0.419217
0.417845
0.417005
0.416763
0.417103
0.417931
0.41908
0.420338
0.43033
0.429455
0.428493
0.427356
0.426028
0.424554
0.422971
0.421312
0.419605
0.417876
0.416148
0.41444
0.412768
0.411145
0.409581
0.408082
0.406652
0.405295
0.404011
0.4028
0.401663
0.400597
0.399601
0.398673
0.397812
0.397016
0.396283
0.395612
0.395002
0.394452
0.393961
0.39353
0.393159
0.392849
0.3926
0.392414
0.392294
0.392241
0.392259
0.392351
0.392522
0.392774
0.393114
0.393544
0.394071
0.394699
0.395434
0.39628
0.397242
0.398325
0.399529
0.400858
0.40231
0.403882
0.405568
0.407358
0.409238
0.411187
0.413179
0.415181
0.41715
0.41904
0.420799
0.422349
0.423575
0.424389
0.424748
0.424629
0.424047
0.423066
0.421753
0.420201
0.418656
0.417387
0.416562
0.416243
0.416393
0.416917
0.417634
0.418585
0.428555
0.427571
0.426591
0.425471
0.424184
0.422773
0.421273
0.41971
0.418109
0.416492
0.414878
0.413282
0.411719
0.410199
0.408731
0.40732
0.405972
0.404688
0.40347
0.402318
0.401232
0.400211
0.399254
0.39836
0.397527
0.396753
0.396038
0.39538
0.394778
0.394232
0.39374
0.393304
0.392923
0.392598
0.39233
0.39212
0.391971
0.391884
0.391862
0.391909
0.392028
0.392223
0.392498
0.392858
0.393306
0.393848
0.39449
0.395234
0.396087
0.39705
0.398128
0.399322
0.400631
0.402054
0.403587
0.40522
0.406944
0.40874
0.410589
0.412461
0.414324
0.416135
0.417844
0.419387
0.420684
0.421675
0.422318
0.422579
0.422428
0.421882
0.42097
0.419771
0.418498
0.417392
0.41662
0.41625
0.416253
0.416539
0.41692
0.417506
0.426346
0.425352
0.424415
0.423349
0.422139
0.420819
0.419419
0.417966
0.416481
0.414982
0.413485
0.412005
0.410554
0.40914
0.407771
0.406452
0.405188
0.403981
0.402833
0.401743
0.400712
0.39974
0.398826
0.397968
0.397165
0.396417
0.395721
0.395078
0.394486
0.393945
0.393455
0.393014
0.392625
0.392286
0.392
0.391767
0.39159
0.39147
0.391409
0.391412
0.39148
0.391619
0.391832
0.392123
0.392497
0.392957
0.393508
0.394155
0.394902
0.395752
0.396709
0.397773
0.398947
0.400228
0.401614
0.403098
0.404671
0.40632
0.408029
0.409775
0.411531
0.413263
0.414932
0.416487
0.417875
0.419046
0.419954
0.420559
0.420823
0.42073
0.420283
0.419539
0.418644
0.417793
0.417146
0.416761
0.416628
0.416684
0.416803
0.417085
0.423787
0.422855
0.422002
0.421029
0.419929
0.418727
0.417451
0.416124
0.414765
0.413393
0.41202
0.41066
0.409323
0.408018
0.40675
0.405525
0.404347
0.403218
0.402141
0.401115
0.400141
0.399219
0.398348
0.397527
0.396756
0.396034
0.395359
0.394732
0.394151
0.393616
0.393127
0.392684
0.392287
0.391936
0.391633
0.391378
0.391174
0.391022
0.390924
0.390884
0.390905
0.390991
0.391144
0.391371
0.391673
0.392056
0.392523
0.393079
0.393728
0.394473
0.395318
0.396264
0.397313
0.398464
0.399716
0.401063
0.4025
0.404016
0.405599
0.40723
0.408889
0.410549
0.412179
0.413743
0.415203
0.416521
0.417647
0.418547
0.419203
0.41957
0.419635
0.41941
0.418977
0.418466
0.418005
0.41762
0.417353
0.417224
0.417156
0.417197
0.420974
0.420129
0.419383
0.418539
0.417585
0.416533
0.415406
0.414226
0.41301
0.411775
0.410534
0.409299
0.408079
0.406883
0.405717
0.404585
0.403493
0.402442
0.401435
0.400472
0.399553
0.39868
0.397852
0.397068
0.396329
0.395632
0.394978
0.394366
0.393796
0.393268
0.392781
0.392335
0.391931
0.391568
0.391249
0.390974
0.390745
0.390563
0.39043
0.39035
0.390327
0.390362
0.390461
0.390627
0.390865
0.391177
0.391568
0.392042
0.392603
0.393254
0.394
0.394841
0.39578
0.396818
0.397952
0.399182
0.400502
0.401905
0.403381
0.404917
0.406497
0.408101
0.409705
0.411282
0.41281
0.414264
0.415557
0.416695
0.417695
0.418475
0.41902
0.419305
0.419364
0.41923
0.418966
0.41861
0.418246
0.417954
0.417728
0.417567
0.417894
0.417159
0.416559
0.415897
0.415138
0.414277
0.413332
0.412324
0.411269
0.410183
0.409081
0.407974
0.406873
0.405785
0.404719
0.403678
0.402669
0.401692
0.400752
0.399848
0.398983
0.398157
0.397369
0.396619
0.395909
0.395236
0.394601
0.394004
0.393444
0.392922
0.392436
0.391988
0.391577
0.391204
0.39087
0.390576
0.390323
0.390113
0.389948
0.389831
0.389766
0.389756
0.389805
0.389917
0.390096
0.390345
0.390669
0.391071
0.391556
0.392126
0.392786
0.393538
0.394384
0.395327
0.396365
0.397498
0.398723
0.400036
0.401429
0.402894
0.404417
0.405983
0.407575
0.409171
0.410748
0.412286
0.413783
0.415186
0.41643
0.41752
0.418471
0.41919
0.419663
0.419932
0.419904
0.419595
0.41915
0.418657
0.418233
0.417878
0.414386
0.41382
0.413472
0.413105
0.412623
0.412008
0.411286
0.410476
0.4096
0.408674
0.407716
0.406738
0.405753
0.404771
0.4038
0.402845
0.401912
0.401005
0.400126
0.399277
0.398459
0.397675
0.396923
0.396205
0.39552
0.394868
0.39425
0.393666
0.393114
0.392596
0.392112
0.391661
0.391244
0.390861
0.390513
0.390201
0.389926
0.38969
0.389494
0.389343
0.38924
0.389189
0.389194
0.389258
0.389385
0.38958
0.389846
0.390187
0.390607
0.39111
0.391699
0.392378
0.393149
0.394015
0.394978
0.396036
0.39719
0.398436
0.399771
0.401188
0.402678
0.40423
0.405831
0.407465
0.409112
0.410753
0.41237
0.413946
0.41547
0.416893
0.418159
0.419194
0.420024
0.420586
0.420788
0.420578
0.420017
0.419335
0.418535
0.417907
0.410098
0.409914
0.410035
0.410162
0.410089
0.409796
0.409337
0.408754
0.40807
0.40731
0.406495
0.405643
0.404769
0.403884
0.402999
0.402122
0.401257
0.40041
0.399585
0.398783
0.398007
0.397258
0.396537
0.395844
0.395181
0.394546
0.393942
0.393367
0.392822
0.392308
0.391823
0.391369
0.390945
0.390553
0.390192
0.389863
0.389568
0.389307
0.389083
0.3889
0.388763
0.388675
0.388641
0.388664
0.388747
0.388896
0.389114
0.389404
0.389771
0.390219
0.390752
0.391373
0.392087
0.392895
0.393801
0.394805
0.395909
0.397112
0.398412
0.399804
0.401285
0.402845
0.404475
0.406162
0.407893
0.40965
0.411415
0.413167
0.414884
0.416542
0.418143
0.419572
0.420774
0.421646
0.422086
0.421947
0.421163
0.42017
0.418913
0.417695
0.40395
0.404845
0.406079
0.407016
0.407564
0.407719
0.407573
0.407235
0.40675
0.406154
0.405474
0.404737
0.403961
0.403162
0.402351
0.401538
0.40073
0.399933
0.399151
0.398388
0.397644
0.396923
0.396226
0.395553
0.394906
0.394284
0.39369
0.393122
0.392581
0.392067
0.391581
0.391123
0.390693
0.390291
0.389918
0.389575
0.389261
0.388977
0.388725
0.388511
0.388342
0.388223
0.388156
0.388143
0.38819
0.388301
0.388479
0.388729
0.389054
0.38946
0.389949
0.390528
0.391199
0.391966
0.392834
0.393803
0.394877
0.396057
0.397342
0.398732
0.400223
0.401811
0.403489
0.405248
0.407077
0.408962
0.410888
0.412834
0.414778
0.416694
0.418552
0.420303
0.421938
0.42326
0.424113
0.424296
0.423688
0.422152
0.419427
0.41698
0.394606
0.398966
0.401876
0.403838
0.405139
0.405875
0.406118
0.406022
0.40572
0.405267
0.404705
0.404062
0.403366
0.402633
0.401879
0.401116
0.400351
0.399591
0.398841
0.398104
0.397384
0.396683
0.396002
0.395342
0.394705
0.394092
0.393502
0.392938
0.392398
0.391884
0.391395
0.390932
0.390495
0.390085
0.389702
0.389347
0.389017
0.388708
0.388424
0.388177
0.38798
0.387836
0.387742
0.387702
0.38772
0.3878
0.387948
0.388166
0.38846
0.388834
0.389293
0.389841
0.390484
0.391225
0.392069
0.39302
0.394081
0.395255
0.396543
0.397947
0.399467
0.401099
0.402841
0.404688
0.40663
0.408659
0.410761
0.41292
0.415115
0.417322
0.41951
0.421646
0.423695
0.425552
0.427045
0.428067
0.429056
0.42831
0.422438
0.414618
0.375868
0.391043
0.397317
0.400944
0.403093
0.404401
0.405065
0.405213
0.405052
0.404706
0.404226
0.403649
0.403006
0.402317
0.4016
0.400867
0.400129
0.399392
0.398661
0.397941
0.397234
0.396543
0.395871
0.395217
0.394585
0.393974
0.393386
0.392821
0.392281
0.391764
0.391271
0.390803
0.390359
0.389941
0.389549
0.38918
0.388828
0.388496
0.388191
0.387919
0.387691
0.387519
0.387404
0.387343
0.387339
0.387396
0.38752
0.387716
0.387987
0.38834
0.388778
0.389308
0.389934
0.390662
0.391496
0.392442
0.393504
0.394686
0.395992
0.397424
0.398984
0.400674
0.402493
0.404437
0.406504
0.408688
0.410979
0.413366
0.415836
0.41837
0.420947
0.423544
0.426141
0.42871
0.431219
0.433737
0.436473
0.438911
0.439586
0.443415
0.37985
0.390083
0.395873
0.39986
0.402234
0.403706
0.40456
0.404881
0.404808
0.404507
0.404062
0.403512
0.40289
0.402218
0.401515
0.400794
0.400065
0.399336
0.398612
0.397896
0.397193
0.396505
0.395833
0.39518
0.394546
0.393934
0.393344
0.392776
0.392232
0.391711
0.391213
0.390739
0.390288
0.389862
0.389456
0.389063
0.388688
0.388342
0.388028
0.387747
0.387496
0.387291
0.387148
0.387068
0.387048
0.387089
0.387197
0.387377
0.387634
0.387973
0.388401
0.388922
0.389541
0.390266
0.391102
0.392053
0.393127
0.394327
0.395661
0.397131
0.398741
0.400496
0.402397
0.404444
0.406639
0.408979
0.411462
0.414082
0.416832
0.419704
0.422686
0.425768
0.428944
0.432213
0.435608
0.439239
0.443229
0.447559
0.453051
0.462408
0.38858
0.394509
0.398394
0.401197
0.402965
0.404095
0.404781
0.405071
0.405
0.404681
0.404213
0.403645
0.403009
0.402326
0.401614
0.400886
0.400151
0.399417
0.398687
0.397967
0.397259
0.396565
0.395888
0.395229
0.39459
0.393972
0.393377
0.392804
0.392256
0.39173
0.391227
0.390747
0.39029
0.389848
0.389415
0.388999
0.388612
0.388258
0.387938
0.387649
0.387391
0.387168
0.386992
0.386882
0.386844
0.386877
0.386976
0.387148
0.387398
0.387732
0.388155
0.388675
0.389297
0.390027
0.390872
0.391838
0.392931
0.394158
0.395526
0.397039
0.398704
0.400526
0.402509
0.404657
0.406974
0.409463
0.412125
0.414962
0.417975
0.421163
0.424526
0.428069
0.431795
0.435708
0.439846
0.444259
0.448925
0.453819
0.459305
0.466009
0.395646
0.399308
0.401842
0.403555
0.404641
0.405305
0.405655
0.405745
0.405582
0.405198
0.404657
0.404024
0.403338
0.402618
0.401878
0.401127
0.400374
0.399622
0.398879
0.398145
0.397425
0.396721
0.396034
0.395365
0.394717
0.394091
0.393488
0.39291
0.392357
0.391828
0.391323
0.390833
0.390352
0.38988
0.389427
0.389002
0.38861
0.388252
0.387925
0.387631
0.38737
0.387144
0.386955
0.386817
0.386747
0.386758
0.386852
0.387023
0.387274
0.38761
0.388037
0.388562
0.389192
0.389934
0.390795
0.391781
0.392899
0.394158
0.395563
0.397123
0.398842
0.400729
0.40279
0.40503
0.407457
0.410075
0.412893
0.415916
0.419152
0.422612
0.426301
0.430219
0.43436
0.438676
0.443154
0.447833
0.452686
0.457727
0.463281
0.469428
0.400985
0.403249
0.404858
0.405896
0.406514
0.406822
0.406886
0.406757
0.406453
0.405976
0.405342
0.404611
0.403845
0.403069
0.402287
0.401502
0.40072
0.399946
0.399181
0.39843
0.397694
0.396975
0.396274
0.395594
0.394934
0.394298
0.393687
0.393104
0.392548
0.392015
0.391492
0.390972
0.390461
0.389971
0.389513
0.389087
0.388693
0.388331
0.388002
0.387706
0.387444
0.387219
0.387033
0.386891
0.386801
0.386779
0.386842
0.387001
0.387256
0.387601
0.388039
0.388577
0.389221
0.389981
0.390862
0.391872
0.39302
0.394312
0.395757
0.397361
0.399132
0.401078
0.403207
0.405526
0.408043
0.410767
0.413708
0.416877
0.420289
0.423955
0.427852
0.431935
0.436196
0.440628
0.445192
0.449886
0.45477
0.459885
0.465267
0.470818
0.40502
0.406371
0.407317
0.407905
0.408203
0.408267
0.408139
0.407859
0.407448
0.406886
0.406158
0.405327
0.404478
0.403641
0.402813
0.401991
0.401178
0.400377
0.399589
0.398818
0.398064
0.397329
0.396615
0.395922
0.395252
0.394607
0.393988
0.393397
0.392829
0.392269
0.391708
0.391161
0.390641
0.390151
0.389691
0.389263
0.388866
0.388503
0.388174
0.387879
0.38762
0.387398
0.387219
0.387086
0.387004
0.386976
0.387016
0.387142
0.387368
0.387703
0.388153
0.388712
0.389377
0.39016
0.391066
0.392104
0.393283
0.39461
0.396092
0.397738
0.399556
0.401553
0.403739
0.406121
0.408708
0.411509
0.414539
0.417809
0.421318
0.425042
0.428959
0.433054
0.437313
0.441759
0.446394
0.451194
0.456147
0.461235
0.466417
0.471579
0.407452
0.4084