/*--------------------------------*- C++ -*----------------------------------*\
| =========                 |                                                 |
| \\      /  F ield         | OpenFOAM: The Open Source CFD Toolbox           |
|  \\    /   O peration     | Version:  v2012                                 |
|   \\  /    A nd           | Website:  www.openfoam.com                      |
|    \\/     M anipulation  |                                                 |
\*---------------------------------------------------------------------------*/
FoamFile
{
    version     2.0;
    format      ascii;
    class       surfaceScalarField;
    location    "501";
    object      phi;
}
// * * * * * * * * * * * * * * * * * * * * * * * * * * * * * * * * * * * * * //

dimensions      [0 3 -1 0 0 0 0];
oriented        oriented;


internalField   nonuniform List<scalar> 
12848
(
5.18719e-08
0.000199948
3.52494e-08
0.000200017
2.13199e-08
0.000200014
1.00694e-08
0.000200011
1.80586e-11
0.00020001
-1.00363e-08
0.00020001
-2.12955e-08
0.000200011
-3.52383e-08
0.000200014
-5.18693e-08
0.000200017
0.000199948
8.35059e-08
0.000199865
7.37529e-08
0.000200026
5.00221e-08
0.000200038
2.48366e-08
0.000200036
5.46466e-11
0.000200035
-2.47357e-08
0.000200035
-4.99457e-08
0.000200036
-7.37137e-08
0.000200038
-8.34976e-08
0.000200026
0.000199865
8.62339e-08
0.000199778
8.67501e-08
0.000200026
6.30656e-08
0.000200061
3.24903e-08
0.000200067
1.04969e-10
0.000200067
-3.22917e-08
0.000200067
-6.28968e-08
0.000200067
-8.66169e-08
0.000200061
-8.61566e-08
0.000200026
0.000199778
8.33791e-08
0.000199695
8.72916e-08
0.000200022
6.60799e-08
0.000200083
3.49763e-08
0.000200098
1.76529e-10
0.000200102
-3.46404e-08
0.000200102
-6.57922e-08
0.000200098
-8.70814e-08
0.000200083
-8.32638e-08
0.000200022
0.000199695
7.97334e-08
0.000199615
8.47523e-08
0.000200017
6.52825e-08
0.000200102
3.49824e-08
0.000200128
2.80159e-10
0.000200137
-3.44479e-08
0.000200137
-6.48229e-08
0.000200129
-8.44154e-08
0.000200102
-7.95518e-08
0.000200017
0.000199616
7.53212e-08
0.00019954
8.07537e-08
0.000200011
6.29534e-08
0.00020012
3.39959e-08
0.000200157
4.30634e-10
0.00020017
-3.31763e-08
0.00020017
-6.22547e-08
0.000200158
-8.02378e-08
0.00020012
-7.50404e-08
0.000200012
0.000199541
7.09982e-08
0.000199469
7.621e-08
0.000200006
5.95526e-08
0.000200136
3.24021e-08
0.000200185
6.5772e-10
0.000200202
-3.1151e-08
0.000200202
-5.84872e-08
0.000200185
-7.54255e-08
0.000200137
-7.05693e-08
0.000200007
0.00019947
6.72077e-08
0.000199402
7.20181e-08
0.000200001
5.63576e-08
0.000200152
3.08615e-08
0.00020021
1.00659e-09
0.000200232
-2.89447e-08
0.000200232
-5.47191e-08
0.000200211
-7.08114e-08
0.000200153
-6.65467e-08
0.000200003
0.000199404
6.40785e-08
0.000199338
6.85167e-08
0.000199997
5.37213e-08
0.000200167
2.96858e-08
0.000200234
1.53787e-09
0.00020026
-2.67562e-08
0.00020026
-5.12147e-08
0.000200235
-6.66684e-08
0.000200169
-6.30635e-08
0.000199999
0.00019934
6.1612e-08
0.000199276
6.5803e-08
0.000199993
5.17766e-08
0.000200181
2.90166e-08
0.000200257
2.34333e-09
0.000200287
-2.4552e-08
0.000200287
-4.79562e-08
0.000200259
-6.29909e-08
0.000200184
-6.00681e-08
0.000199996
0.00019928
5.97777e-08
0.000199216
6.39078e-08
0.000199989
5.06233e-08
0.000200194
2.89884e-08
0.000200278
3.56157e-09
0.000200312
-2.22038e-08
0.000200313
-4.48218e-08
0.000200281
-5.96493e-08
0.000200199
-5.74432e-08
0.000199994
0.000199223
5.85854e-08
0.000199158
6.29086e-08
0.000199984
5.03877e-08
0.000200207
2.97796e-08
0.000200299
5.39843e-09
0.000200337
-1.95041e-08
0.000200338
-4.1616e-08
0.000200303
-5.64642e-08
0.000200213
-5.5057e-08
0.000199993
0.000199168
5.81146e-08
0.0001991
6.29896e-08
0.00019998
5.13232e-08
0.000200218
3.16919e-08
0.000200319
8.17692e-09
0.00020036
-1.6146e-08
0.000200362
-3.80784e-08
0.000200325
-5.32363e-08
0.000200229
-5.27856e-08
0.000199992
0.000199115
5.8498e-08
0.000199041
6.44027e-08
0.000199974
5.38581e-08
0.000200229
3.52346e-08
0.000200337
1.24094e-08
0.000200383
-1.16829e-08
0.000200386
-3.38849e-08
0.000200348
-4.97802e-08
0.000200245
-5.05407e-08
0.000199993
0.000199065
5.99126e-08
0.000198981
6.74879e-08
0.000199966
5.8587e-08
0.000200238
4.11866e-08
0.000200355
1.88887e-08
0.000200405
-5.45701e-09
0.000200411
-2.86298e-08
0.000200371
-4.59681e-08
0.000200262
-4.83779e-08
0.000199996
0.000199016
6.28793e-08
0.000198918
7.32629e-08
0.000199956
6.67397e-08
0.000200244
5.08566e-08
0.000200371
2.89001e-08
0.000200427
3.55774e-09
0.000200436
-2.1785e-08
0.000200396
-4.18561e-08
0.000200282
-4.66195e-08
0.0002
0.00019897
6.80872e-08
0.00019885
8.29472e-08
0.000199941
7.99758e-08
0.000200247
6.61969e-08
0.000200384
4.44067e-08
0.000200449
1.70466e-08
0.000200463
-1.26635e-08
0.000200426
-3.82715e-08
0.000200308
-4.69457e-08
0.000200009
0.000198923
7.65402e-08
0.000198774
9.84608e-08
0.000199919
1.0114e-07
0.000200245
9.08109e-08
0.000200395
6.94041e-08
0.00020047
3.81103e-08
0.000200495
-5.49728e-10
0.000200464
-3.90823e-08
0.000200346
-5.59527e-08
0.000200026
0.000198867
8.96314e-08
0.000198684
1.22558e-07
0.000199886
1.34402e-07
0.000200233
1.30461e-07
0.000200399
1.11101e-07
0.00020049
7.52902e-08
0.000200531
2.35988e-08
0.000200516
-3.3566e-08
0.000200403
-6.96752e-08
0.000200062
0.000198797
1.08965e-07
0.000198575
1.58699e-07
0.000199836
1.85227e-07
0.000200206
1.92632e-07
0.000200391
1.7869e-07
0.000200504
1.37757e-07
0.000200572
5.61334e-08
0.000200598
-7.53355e-08
0.000200535
-2.56908e-07
0.000200244
0.00019854
1.36681e-07
0.000198438
2.11396e-07
0.000199761
2.61658e-07
0.000200156
2.91638e-07
0.000200361
2.99843e-07
0.000200495
2.83545e-07
0.000200588
2.42625e-07
0.000200639
1.78634e-07
0.000200599
4.26626e-07
0.000199996
0.000193863
5.10408e-06
1.74267e-07
0.000198264
2.83736e-07
0.000199652
3.6833e-07
0.000200071
4.33049e-07
0.000200297
4.778e-07
0.000200451
5.06309e-07
0.000200559
5.4271e-07
0.000200602
6.52355e-07
0.000200489
9.71919e-07
0.000199676
0.00019164
3.19455e-06
2.22122e-07
0.000198042
3.76542e-07
0.000199498
5.05716e-07
0.000199942
6.15798e-07
0.000200186
7.08323e-07
0.000200358
7.88378e-07
0.000200479
8.77577e-07
0.000200513
1.08368e-06
0.000200283
1.76806e-06
0.000198992
0.000188371
5.03673e-06
2.80578e-07
0.000197761
4.9035e-07
0.000199288
6.74299e-07
0.000199758
8.39823e-07
0.000200021
9.90746e-07
0.000200207
1.1374e-06
0.000200333
1.31702e-06
0.000200333
1.66987e-06
0.00019993
2.68423e-06
0.000197977
0.00018476
6.29533e-06
3.50335e-07
0.000197411
6.26393e-07
0.000199012
8.75785e-07
0.000199509
1.10721e-06
0.00019979
1.32696e-06
0.000199987
1.5514e-06
0.000200108
1.82977e-06
0.000200055
2.31804e-06
0.000199442
3.54264e-06
0.000196753
0.000181171
7.13175e-06
4.3244e-07
0.000196979
7.8647e-07
0.000198658
1.11252e-06
0.000199183
1.42041e-06
0.000199482
1.71826e-06
0.00019969
2.0269e-06
0.0001998
2.40509e-06
0.000199677
3.02965e-06
0.000198817
4.48076e-06
0.000195302
0.000177742
7.90997e-06
5.28337e-07
0.00019645
9.73256e-07
0.000198213
1.38852e-06
0.000198768
1.78483e-06
0.000199085
2.172e-06
0.000199302
2.57482e-06
0.000199397
3.05985e-06
0.000199192
3.81221e-06
0.000198065
5.40956e-06
0.000193704
0.000174608
8.54299e-06
6.40225e-07
0.00019581
1.1906e-06
0.000197662
1.70991e-06
0.000198248
2.20939e-06
0.000198586
2.70076e-06
0.000198811
3.21297e-06
0.000198884
3.82049e-06
0.000198584
4.7122e-06
0.000197173
6.42259e-06
0.000191994
0.000171747
9.28423e-06
7.71333e-07
0.000195039
1.44336e-06
0.00019699
2.08383e-06
0.000197608
2.70413e-06
0.000197966
3.31832e-06
0.000198197
3.96012e-06
0.000198243
4.71412e-06
0.00019783
5.782e-06
0.000196105
7.63325e-06
0.000190143
0.000169163
1.02168e-05
9.21909e-07
0.000194117
1.73701e-06
0.000196175
2.51727e-06
0.000196828
3.27753e-06
0.000197205
4.0338e-06
0.000197441
4.82359e-06
0.000197453
5.73675e-06
0.000196917
6.97529e-06
0.000194867
8.94377e-06
0.000188174
0.000166874
1.12334e-05
1.0941e-06
0.000193023
2.07594e-06
0.000195193
3.01713e-06
0.000195886
3.93733e-06
0.000196285
4.85433e-06
0.000196524
5.80776e-06
0.000196499
6.88791e-06
0.000195837
8.28599e-06
0.000193469
1.03278e-05
0.000186132
0.000164914
1.22875e-05
1.2932e-06
0.00019173
2.46455e-06
0.000194022
3.59063e-06
0.00019476
4.69315e-06
0.000195183
5.79122e-06
0.000195426
6.92524e-06
0.000195365
8.18294e-06
0.000194579
9.74184e-06
0.00019191
1.18167e-05
0.000184057
0.000163268
1.3463e-05
1.52196e-06
0.000190208
2.90976e-06
0.000192634
4.24734e-06
0.000193423
5.55769e-06
0.000193872
6.86029e-06
0.000194123
8.19448e-06
0.000194031
9.64206e-06
0.000193132
1.13538e-05
0.000190198
1.341e-05
0.000182001
0.000161905
1.47729e-05
1.78396e-06
0.000188424
3.41957e-06
0.000190999
4.99885e-06
0.000191843
6.54632e-06
0.000192325
8.08083e-06
0.000192588
9.63844e-06
0.000192474
1.12899e-05
0.00019148
1.31439e-05
0.000188344
1.51582e-05
0.000179987
0.000160787
1.62754e-05
2.08346e-06
0.00018634
4.00246e-06
0.00018908
5.85789e-06
0.000189988
7.67616e-06
0.000190506
9.47479e-06
0.00019079
1.12844e-05
0.000190664
1.31594e-05
0.000189605
1.51587e-05
0.000186345
1.71368e-05
0.000178009
0.000159869
1.80552e-05
2.42473e-06
0.000183915
4.66698e-06
0.000186837
6.83741e-06
0.000187818
8.96497e-06
0.000188379
1.10654e-05
0.000188689
1.31621e-05
0.000188567
1.52894e-05
0.000187478
1.74547e-05
0.00018418
1.94252e-05
0.000176038
0.000159093
2.02017e-05
2.81171e-06
0.000181104
5.42105e-06
0.000184228
7.94946e-06
0.000185289
1.04294e-05
0.000185899
1.28747e-05
0.000186244
1.53005e-05
0.000186142
1.7719e-05
0.000185059
2.00875e-05
0.000181811
2.21013e-05
0.000174025
0.000158384
2.28093e-05
3.24723e-06
0.000177856
6.27103e-06
0.000181204
9.20379e-06
0.000182356
1.20827e-05
0.00018302
1.49205e-05
0.000183406
1.77236e-05
0.000183338
2.04821e-05
0.000182301
2.31073e-05
0.000179186
2.52391e-05
0.000171893
0.000157646
2.5978e-05
3.73492e-06
0.000174122
7.22096e-06
0.000177718
1.06063e-05
0.000178971
1.3933e-05
0.000179693
1.72134e-05
0.000180126
2.04463e-05
0.000180106
2.36013e-05
0.000179146
2.65503e-05
0.000176237
2.88943e-05
0.000169549
0.000156757
2.97831e-05
4.27702e-06
0.000169845
8.27219e-06
0.000173723
1.21579e-05
0.000175085
1.5981e-05
0.00017587
1.97544e-05
0.000176352
2.34708e-05
0.000176389
2.70824e-05
0.000175534
3.04311e-05
0.000172888
3.30948e-05
0.000166885
0.000155581
3.42706e-05
4.87202e-06
0.000164973
9.42295e-06
0.000169172
1.38545e-05
0.000170654
1.82196e-05
0.000171505
2.25331e-05
0.000172039
2.67838e-05
0.000172138
3.09117e-05
0.000171406
3.47388e-05
0.000169061
3.78363e-05
0.000163788
0.000153969
3.94483e-05
5.51742e-06
0.000159455
1.06681e-05
0.000164022
1.56864e-05
0.000165635
2.06333e-05
0.000166558
2.55274e-05
0.000167145
3.03566e-05
0.000167309
3.50543e-05
0.000166709
3.9434e-05
0.000164681
4.30764e-05
0.000160145
0.00015177
4.52759e-05
6.21006e-06
0.000153245
1.19996e-05
0.000158232
1.7639e-05
0.000159996
2.31992e-05
0.000160998
2.87046e-05
0.00016164
3.41454e-05
0.000161868
3.94546e-05
0.0001614
4.44487e-05
0.000159687
4.8733e-05
0.000155861
0.000148844
5.1659e-05
6.94664e-06
0.000146298
1.34085e-05
0.00015177
1.96949e-05
0.00015371
2.58893e-05
0.000154804
3.20237e-05
0.000155505
3.80942e-05
0.000155798
4.40394e-05
0.000155454
4.96893e-05
0.000154037
5.46868e-05
0.000150863
0.00014508
5.84502e-05
7.72444e-06
0.000138574
1.48857e-05
0.000144609
2.18355e-05
0.00014676
2.86727e-05
0.000147967
3.54389e-05
0.000148739
4.21393e-05
0.000149097
4.87236e-05
0.00014887
5.50438e-05
0.000147717
6.07907e-05
0.000145117
0.000140412
6.54587e-05
8.54243e-06
0.000130032
1.64245e-05
0.000136727
2.40438e-05
0.000139141
3.15189e-05
0.000140491
3.89035e-05
0.000141354
4.62146e-05
0.000141786
5.34177e-05
0.000141667
6.03926e-05
0.000140742
6.68841e-05
0.000138625
0.000134827
7.24695e-05
9.40236e-06
0.000120629
1.80221e-05
0.000128107
2.63069e-05
0.000130856
3.4401e-05
0.000132397
4.23738e-05
0.000133381
5.02571e-05
0.000133903
5.80353e-05
0.000133889
6.56194e-05
0.000133158
7.28097e-05
0.000131435
0.000128368
7.92683e-05
1.031e-05
0.000110319
1.96815e-05
0.000118736
2.86168e-05
0.00012192
3.72964e-05
0.000123718
4.58108e-05
0.000124867
5.421e-05
0.000125504
6.24993e-05
0.000125599
7.06214e-05
0.000125036
7.84298e-05
0.000123626
0.000121131
8.56673e-05
1.12759e-05
9.90433e-05
2.14115e-05
0.0001086
3.09706e-05
0.000112361
4.01862e-05
0.000114502
4.91796e-05
0.000115874
5.80227e-05
0.000116661
6.67431e-05
0.000116879
7.53138e-05
0.000116465
8.3636e-05
0.000115304
0.000113243
9.15233e-05
1.23164e-05
8.6727e-05
2.32248e-05
9.76915e-05
3.3365e-05
0.000102221
4.3049e-05
0.000104818
5.24426e-05
0.00010648
6.16448e-05
0.000107459
7.07065e-05
0.000107817
7.96278e-05
0.000107544
8.83496e-05
0.000106582
0.000104849
9.67439e-05
1.34531e-05
7.32738e-05
2.51293e-05
8.60154e-05
3.57843e-05
9.15661e-05
4.58476e-05
9.4755e-05
5.55467e-05
9.6781e-05
6.50141e-05
9.79911e-05
7.4324e-05
9.85075e-05
8.34995e-05
9.83685e-05
9.25118e-05
9.757e-05
9.60841e-05
0.000101277
1.47185e-05
5.85553e-05
2.70902e-05
7.36437e-05
3.81697e-05
8.04865e-05
4.8507e-05
8.44177e-05
5.84041e-05
8.68839e-05
6.80381e-05
8.83571e-05
7.75071e-05
8.90384e-05
8.68517e-05
8.90239e-05
9.6063e-05
8.83586e-05
8.70607e-05
0.000105086
1.61278e-05
4.24275e-05
2.89986e-05
6.07729e-05
4.03562e-05
6.91289e-05
5.08491e-05
7.39248e-05
6.08432e-05
7.68898e-05
7.05585e-05
7.86417e-05
8.01158e-05
7.94811e-05
8.95673e-05
7.95725e-05
9.89152e-05
7.90107e-05
7.78542e-05
0.000108122
1.67432e-05
2.56843e-05
3.05103e-05
4.70058e-05
4.21149e-05
5.75243e-05
5.26236e-05
6.34161e-05
6.26022e-05
6.69112e-05
7.23264e-05
6.89175e-05
8.19275e-05
6.988e-05
9.14578e-05
7.00422e-05
0.00010092
6.9548e-05
6.84915e-05
0.000110283
1.48169e-05
1.08674e-05
2.99032e-05
3.19196e-05
4.23681e-05
4.50594e-05
5.31722e-05
5.26121e-05
6.32095e-05
5.68739e-05
7.29514e-05
5.91755e-05
8.26028e-05
6.02287e-05
9.22319e-05
6.04131e-05
0.000101839
5.99413e-05
5.89446e-05
0.000111386
1.03379e-05
5.29464e-07
2.5353e-05
1.69045e-05
3.90282e-05
3.13841e-05
5.08669e-05
4.07734e-05
6.15343e-05
4.62065e-05
7.1639e-05
4.90708e-05
8.15463e-05
5.03214e-05
9.14156e-05
5.05437e-05
0.00010128
5.0077e-05
4.91166e-05
0.000111108
6.11758e-06
-5.58812e-06
1.78841e-05
5.13798e-06
3.11875e-05
1.80807e-05
4.39406e-05
2.80203e-05
5.57666e-05
3.43805e-05
6.68737e-05
3.79637e-05
7.7578e-05
3.96172e-05
8.80937e-05
4.0028e-05
9.85155e-05
3.96552e-05
3.87758e-05
0.000108856
2.92562e-06
-8.51374e-06
9.71133e-06
-1.64773e-06
2.00952e-05
7.69682e-06
3.20809e-05
1.60345e-05
4.44851e-05
2.19764e-05
5.67855e-05
2.56633e-05
6.88244e-05
2.75783e-05
8.0578e-05
2.82744e-05
9.20909e-05
2.81423e-05
2.74606e-05
0.000103406
-1.5194e-06
-6.99434e-06
7.38683e-07
-3.9058e-06
7.11849e-06
1.31701e-06
1.6653e-05
6.50004e-06
2.82888e-05
1.03405e-05
4.11435e-05
1.28086e-05
5.44807e-05
1.42411e-05
6.7742e-05
1.5013e-05
8.07906e-05
1.50937e-05
1.46474e-05
9.36037e-05
-6.99434e-06
-1.09001e-05
-9.58314e-06
-3.0831e-06
7.25741e-06
2.0066e-05
3.43071e-05
4.93202e-05
6.44139e-05
7.90613e-05
-2.87052e-05
3.38092e-05
-2.80501e-05
-6.55099e-07
-2.47581e-05
-3.29195e-06
-2.05508e-05
-4.20734e-06
-1.55914e-05
-4.95935e-06
-1.01768e-05
-5.41456e-06
-4.59122e-06
-5.58563e-06
9.17227e-07
-5.50843e-06
6.24833e-06
-5.33111e-06
1.13946e-05
-5.14625e-06
1.62246e-05
-4.83005e-06
2.05279e-05
-4.30331e-06
2.40885e-05
-3.56058e-06
2.68196e-05
-2.73106e-06
2.8677e-05
-1.85745e-06
2.96661e-05
-9.89135e-07
2.97275e-05
-6.13443e-08
2.87861e-05
9.41327e-07
2.67718e-05
2.01437e-06
2.36232e-05
3.14856e-06
1.9316e-05
4.30723e-06
1.39566e-05
5.35933e-06
8.08663e-06
5.87e-06
2.89095e-06
5.1957e-06
2.89096e-06
-1.41869e-05
5.11907e-05
-1.99944e-05
5.15239e-06
-1.98695e-05
-3.41687e-06
-1.77778e-05
-6.29897e-06
-1.46012e-05
-8.13601e-06
-1.06444e-05
-9.37139e-06
-6.14081e-06
-1.00892e-05
-1.31896e-06
-1.03303e-05
3.4817e-06
-1.01318e-05
7.97326e-06
-9.63781e-06
1.2032e-05
-8.88879e-06
1.55749e-05
-7.84624e-06
1.85471e-05
-6.5327e-06
2.08834e-05
-5.06744e-06
2.25588e-05
-3.53281e-06
2.35405e-05
-1.97083e-06
2.38559e-05
-3.76743e-07
2.35274e-05
1.26977e-06
2.25441e-05
2.99774e-06
2.08645e-05
4.82812e-06
1.84233e-05
6.74839e-06
1.5131e-05
8.65166e-06
1.08351e-05
1.01659e-05
5.62382e-06
1.0407e-05
8.51479e-06
-8.51114e-06
6.47386e-05
-1.55141e-05
1.21553e-05
-1.72418e-05
-1.68918e-06
-1.64553e-05
-7.08541e-06
-1.42609e-05
-1.03305e-05
-1.11366e-05
-1.24957e-05
-7.40992e-06
-1.38158e-05
-3.33183e-06
-1.44084e-05
9.07549e-07
-1.43712e-05
5.0037e-06
-1.3734e-05
8.67445e-06
-1.25595e-05
1.18108e-05
-1.09826e-05
1.44e-05
-9.12183e-06
1.64182e-05
-7.08569e-06
1.7849e-05
-4.9636e-06
1.86894e-05
-2.81121e-06
1.89593e-05
-6.46649e-07
1.86873e-05
1.54175e-06
1.79014e-05
3.78361e-06
1.66192e-05
6.11036e-06
1.48341e-05
8.53346e-06
1.2489e-05
1.09967e-05
9.41428e-06
1.32406e-05
5.33551e-06
1.44858e-05
1.38503e-05
-6.00047e-06
7.70344e-05
-1.40224e-05
2.01773e-05
-1.67779e-05
1.06632e-06
-1.66997e-05
-7.16368e-06
-1.50198e-05
-1.20103e-05
-1.23488e-05
-1.51667e-05
-9.05267e-06
-1.7112e-05
-5.40375e-06
-1.80573e-05
-1.61895e-06
-1.8156e-05
2.0696e-06
-1.74225e-05
5.43277e-06
-1.59227e-05
8.32093e-06
-1.38708e-05
1.06842e-05
-1.14851e-05
1.24984e-05
-8.89982e-06
1.37612e-05
-6.22645e-06
1.44936e-05
-3.5436e-06
1.47304e-05
-8.83459e-07
1.45114e-05
1.76076e-06
1.38732e-05
4.4218e-06
1.28447e-05
7.13885e-06
1.14413e-05
9.93691e-06
9.64757e-06
1.27904e-05
7.37082e-06
1.55174e-05
4.33969e-06
1.75169e-05
1.819e-05
-3.25491e-06
8.7421e-05
-1.26789e-05
2.96013e-05
-1.66715e-05
5.05894e-06
-1.73661e-05
-6.46915e-06
-1.61964e-05
-1.318e-05
-1.39271e-05
-1.7436e-05
-1.09808e-05
-2.00583e-05
-7.66832e-06
-2.13698e-05
-4.26069e-06
-2.15636e-05
-9.47335e-07
-2.07359e-05
2.13479e-06
-1.90048e-05
4.84291e-06
-1.65789e-05
7.06034e-06
-1.37026e-05
8.74001e-06
-1.05795e-05
9.89481e-06
-7.38125e-06
1.05699e-05
-4.21869e-06
1.08201e-05
-1.13362e-06
1.06952e-05
1.88565e-06
1.02351e-05
4.88183e-06
9.4693e-06
7.90468e-06
8.41562e-06
1.09906e-05
7.07292e-06
1.41331e-05
5.38642e-06
1.72039e-05
3.11612e-06
1.97872e-05
2.13061e-05
-3.96251e-07
9.57272e-05
-1.02553e-05
3.94603e-05
-1.56143e-05
1.0418e-05
-1.73985e-05
-4.68499e-06
-1.70136e-05
-1.35649e-05
-1.53424e-05
-1.91072e-05
-1.29006e-05
-2.25001e-05
-1.00234e-05
-2.42469e-05
-6.97237e-06
-2.46146e-05
-3.94159e-06
-2.37666e-05
-1.08714e-06
-2.18593e-05
1.44053e-06
-1.91066e-05
3.51425e-06
-1.57763e-05
5.08108e-06
-1.21463e-05
6.16065e-06
-8.46083e-06
6.81535e-06
-4.87339e-06
7.11603e-06
-1.43431e-06
7.12047e-06
1.8812e-06
6.86895e-06
5.13335e-06
6.38708e-06
8.38654e-06
5.68918e-06
1.16885e-05
4.77585e-06
1.50464e-05
3.61257e-06
1.83671e-05
2.04246e-06
2.13573e-05
2.33486e-05
2.09489e-06
0.000102175
-7.0564e-06
4.86116e-05
-1.33272e-05
1.66888e-05
-1.63089e-05
-1.70331e-06
-1.70012e-05
-1.28725e-05
-1.62055e-05
-1.99029e-05
-1.44767e-05
-2.42289e-05
-1.21853e-05
-2.65383e-05
-9.5907e-06
-2.72092e-05
-6.89379e-06
-2.64636e-05
-4.28017e-06
-2.44729e-05
-1.92724e-06
-2.14595e-05
2.61764e-08
-1.77297e-05
1.51354e-06
-1.36337e-05
2.5539e-06
-9.50119e-06
3.2231e-06
-5.54259e-06
3.60633e-06
-1.81754e-06
3.76744e-06
1.72009e-06
3.74557e-06
5.15522e-06
3.56251e-06
8.5696e-06
3.22977e-06
1.20212e-05
2.74942e-06
1.55268e-05
2.10125e-06
1.90153e-05
1.1955e-06
2.2263e-05
2.45441e-05
4.27173e-06
0.000107188
-3.85591e-06
5.67392e-05
-1.04441e-05
2.32769e-05
-1.44298e-05
2.28241e-06
-1.62236e-05
-1.10787e-05
-1.64476e-05
-1.96789e-05
-1.56004e-05
-2.50761e-05
-1.40414e-05
-2.80973e-05
-1.20449e-05
-2.92057e-05
-9.78613e-06
-2.87223e-05
-7.45742e-06
-2.68016e-05
-5.27058e-06
-2.36464e-05
-3.39925e-06
-1.9601e-05
-1.94252e-06
-1.50904e-05
-8.96578e-07
-1.05471e-05
-1.7907e-07
-6.2601e-06
3.10252e-07
-2.30686e-06
6.43689e-07
1.38665e-06
8.60547e-07
4.93836e-06
9.79771e-07
8.45037e-06
1.01085e-06
1.19901e-05
9.56443e-07
1.55812e-05
8.01458e-07
1.91703e-05
4.89969e-07
2.25745e-05
2.5034e-05
6.22573e-06
0.000111179
-9.58799e-07
6.39238e-05
-7.51984e-06
2.98379e-05
-1.21886e-05
6.95118e-06
-1.49495e-05
-8.3178e-06
-1.61878e-05
-1.84406e-05
-1.63015e-05
-2.49623e-05
-1.55932e-05
-2.88057e-05
-1.43399e-05
-3.0459e-05
-1.26415e-05
-3.04207e-05
-1.06563e-05
-2.87868e-05
-8.6295e-06
-2.56731e-05
-6.78337e-06
-2.14472e-05
-5.28275e-06
-1.6591e-05
-4.16816e-06
-1.16617e-05
-3.36385e-06
-7.06442e-06
-2.75134e-06
-2.91937e-06
-2.24166e-06
8.76962e-07
-1.7898e-06
4.48651e-06
-1.37714e-06
8.03771e-06
-9.96077e-07
1.16091e-05
-6.45838e-07
1.5231e-05
-3.43116e-07
1.88676e-05
-1.31065e-07
2.23625e-05
2.4903e-05
8.02414e-06
0.000114388
1.66625e-06
7.02817e-05
-4.73214e-06
3.62363e-05
-9.8553e-06
1.20743e-05
-1.34402e-05
-4.7329e-06
-1.56523e-05
-1.62285e-05
-1.67666e-05
-2.3848e-05
-1.7007e-05
-2.85654e-05
-1.6542e-05
-3.0924e-05
-1.55171e-05
-3.14456e-05
-1.39575e-05
-3.03465e-05
-1.21069e-05
-2.75236e-05
-1.02253e-05
-2.33288e-05
-8.5711e-06
-1.82453e-05
-7.28408e-06
-1.29487e-05
-6.33198e-06
-8.01652e-06
-5.57435e-06
-3.67701e-06
-4.88819e-06
1.90805e-07
-4.21161e-06
3.80993e-06
-3.52118e-06
7.34728e-06
-2.80995e-06
1.08978e-05
-2.08043e-06
1.45014e-05
-1.35456e-06
1.81417e-05
-6.77849e-07
2.16858e-05
2.42251e-05
9.67336e-06
0.000117002
4.02965e-06
7.59254e-05
-2.15133e-06
4.24173e-05
-7.57805e-06
1.75011e-05
-1.18431e-05
-4.67844e-07
-1.49417e-05
-1.31299e-05
-1.70302e-05
-2.17595e-05
-1.82703e-05
-2.73253e-05
-1.86845e-05
-3.05098e-05
-1.84196e-05
-3.17104e-05
-1.74335e-05
-3.13326e-05
-1.58516e-05
-2.91056e-05
-1.39223e-05
-2.5258e-05
-1.19911e-05
-2.01765e-05
-1.03624e-05
-1.45775e-05
-9.13898e-06
-9.23995e-06
-8.18329e-06
-4.6327e-06
-7.31089e-06
-6.81594e-07
-6.41871e-06
2.91775e-06
-5.4677e-06
6.39626e-06
-4.4468e-06
9.87692e-06
-3.36108e-06
1.34157e-05
-2.24349e-06
1.70241e-05
-1.16065e-06
2.06029e-05
2.30645e-05
1.12581e-05
0.000119207
6.17781e-06
8.10057e-05
2.11022e-07
4.83841e-05
-5.4255e-06
2.31376e-05
-1.02485e-05
4.35514e-06
-1.41345e-05
-9.24386e-06
-1.7133e-05
-1.8761e-05
-1.93305e-05
-2.51279e-05
-2.07541e-05
-2.90862e-05
-2.13595e-05
-3.11051e-05
-2.11329e-05
-3.15591e-05
-2.00251e-05
-3.02134e-05
-1.81657e-05
-2.71175e-05
-1.59028e-05
-2.24394e-05
-1.37112e-05
-1.67691e-05
-1.19595e-05
-1.09916e-05
-1.06591e-05
-5.93309e-06
-9.55081e-06
-1.78989e-06
-8.43856e-06
1.8055e-06
-7.23919e-06
5.19689e-06
-5.92532e-06
8.56306e-06
-4.49719e-06
1.19876e-05
-2.99513e-06
1.5522e-05
-1.52047e-06
1.91282e-05
2.1544e-05
1.28258e-05
0.000121154
8.1758e-06
8.56557e-05
2.39749e-06
5.41624e-05
-3.3984e-06
2.89335e-05
-8.68949e-06
9.64623e-06
-1.32749e-05
-4.65842e-06
-1.71195e-05
-1.49164e-05
-2.02503e-05
-2.19971e-05
-2.26716e-05
-2.66648e-05
-2.42881e-05
-2.94885e-05
-2.50603e-05
-3.0787e-05
-2.46956e-05
-3.05781e-05
-2.32138e-05
-2.85993e-05
-2.07999e-05
-2.48533e-05
-1.79306e-05
-1.96383e-05
-1.52578e-05
-1.36645e-05
-1.32325e-05
-7.95838e-06
-1.1712e-05
-3.31037e-06
-1.03261e-05
4.19545e-07
-8.86904e-06
3.73985e-06
-7.26448e-06
6.9585e-06
-5.48319e-06
1.02063e-05
-3.53221e-06
1.35711e-05
-1.55766e-06
1.71537e-05
1.99864e-05
1.4477e-05
0.000122953
1.01353e-05
8.99974e-05
4.50466e-06
5.97931e-05
-1.42306e-06
3.48612e-05
-7.1071e-06
1.53303e-05
-1.22969e-05
5.31329e-07
-1.68943e-05
-1.0319e-05
-2.08809e-05
-1.80105e-05
-2.42404e-05
-2.33053e-05
-2.69129e-05
-2.6816e-05
-2.87979e-05
-2.89019e-05
-2.96193e-05
-2.97568e-05
-2.90123e-05
-2.92062e-05
-2.70186e-05
-2.6847e-05
-2.3832e-05
-2.28249e-05
-2.00901e-05
-1.74063e-05
-1.66906e-05
-1.13579e-05
-1.41686e-05
-5.83234e-06
-1.22449e-05
-1.50415e-06
-1.04548e-05
1.94971e-06
-8.5386e-06
5.04234e-06
-6.39081e-06
8.05851e-06
-3.94315e-06
1.11234e-05
-1.23127e-06
1.44418e-05
1.87551e-05
1.6339e-05
0.000124669
1.22103e-05
9.41262e-05
6.68454e-06
6.53188e-05
6.47025e-07
4.08987e-05
-5.35984e-06
2.13371e-05
-1.10489e-05
6.22042e-06
-1.62867e-05
-5.08125e-06
-2.10269e-05
-1.32703e-05
-2.52457e-05
-1.90864e-05
-2.88811e-05
-2.31807e-05
-3.18414e-05
-2.59416e-05
-3.40136e-05
-2.75846e-05
-3.49599e-05
-2.82599e-05
-3.42211e-05
-2.75859e-05
-3.17942e-05
-2.52518e-05
-2.78214e-05
-2.13792e-05
-2.30023e-05
-1.6177e-05
-1.84982e-05
-1.03364e-05
-1.50504e-05
-4.95187e-06
-1.23935e-05
-7.07249e-07
-9.87651e-06
2.52536e-06
-7.03525e-06
5.21725e-06
-3.48871e-06
7.57688e-06
1.78126e-06
9.17186e-06
8.47377e-06
1.20626e-05
1.8537e-05
0.000126334
1.4561e-05
9.81022e-05
9.10427e-06
7.07755e-05
2.9828e-06
4.70202e-05
-3.26772e-06
2.75876e-05
-9.34012e-06
1.22928e-05
-1.50784e-05
6.5704e-07
-2.04195e-05
-7.92917e-06
-2.53524e-05
-1.41536e-05
-2.98402e-05
-1.86928e-05
-3.38171e-05
-2.19647e-05
-3.71796e-05
-2.42221e-05
-3.97939e-05
-2.56456e-05
-4.11053e-05
-2.62745e-05
-4.0671e-05
-2.5686e-05
-3.82566e-05
-2.37937e-05
-3.39428e-05
-2.04909e-05
-2.82785e-05
-1.60007e-05
-2.24386e-05
-1.07918e-05
-1.74157e-05
-5.7302e-06
-1.33086e-05
-1.58173e-06
-9.6071e-06
1.51577e-06
-5.8479e-06
3.81769e-06
-2.44707e-06
5.77102e-06
8.58403e-06
-2.55732e-06
2.12017e-05
0.000127941
1.73617e-05
0.000101942
1.19767e-05
7.61606e-05
5.80255e-06
5.31943e-05
-6.21148e-07
3.40113e-05
-6.96765e-06
1.86393e-05
-1.30536e-05
6.74303e-06
-1.8806e-05
-2.17677e-06
-2.42417e-05
-8.71798e-06
-2.9395e-05
-1.35395e-05
-3.41945e-05
-1.71652e-05
-3.85601e-05
-1.98565e-05
-4.24248e-05
-2.17809e-05
-4.5649e-05
-2.30503e-05
-4.774e-05
-2.35951e-05
-4.83273e-05
-2.32063e-05
-4.70212e-05
-2.1797e-05
-4.38425e-05
-1.91794e-05
-3.91166e-05
-1.55177e-05
-3.37923e-05
-1.10545e-05
-2.89718e-05
-6.4022e-06
-2.5795e-05
-1.66109e-06
-2.53491e-05
3.37179e-06
-2.87135e-05
9.13543e-06
1.6546e-05
-3.66755e-05
2.44775e-05
0.000129442
2.07936e-05
0.000105626
1.55111e-05
8.1443e-05
9.32912e-06
5.93763e-05
2.79344e-06
4.0547e-05
-3.74433e-06
2.51771e-05
-1.00707e-05
1.30694e-05
-1.60838e-05
3.83641e-06
-2.17827e-05
-3.01912e-06
-2.72503e-05
-8.07189e-06
-3.25141e-05
-1.19014e-05
-3.75168e-05
-1.48539e-05
-4.22048e-05
-1.70928e-05
-4.65609e-05
-1.86942e-05
-5.04715e-05
-1.96845e-05
-5.36535e-05
-2.00244e-05
-5.58392e-05
-1.96112e-05
-5.69553e-05
-1.80633e-05
-5.70284e-05
-1.54446e-05
-5.63951e-05
-1.16878e-05
-5.57542e-05
-7.04315e-06
-5.57225e-05
-1.6928e-06
-5.67833e-05
4.43268e-06
-5.88059e-05
1.1158e-05
1.81657e-05
-6.04255e-05
2.8476e-05
0.000130749
2.50059e-05
0.000109096
1.98804e-05
8.65686e-05
1.37532e-05
6.55035e-05
7.17265e-06
4.71276e-05
5.15317e-07
3.18344e-05
-5.97568e-06
1.95603e-05
-1.21597e-05
1.00205e-05
-1.79802e-05
2.80137e-06
-2.34725e-05
-2.57963e-06
-2.87509e-05
-6.62295e-06
-3.38674e-05
-9.73736e-06
-3.88063e-05
-1.21539e-05
-4.35559e-05
-1.39447e-05
-4.81074e-05
-1.5133e-05
-5.24277e-05
-1.5704e-05
-5.64482e-05
-1.55908e-05
-5.9857e-05
-1.46545e-05
-6.24992e-05
-1.28024e-05
-6.42445e-05
-9.94244e-06
-6.51936e-05
-6.09412e-06
-6.54915e-05
-1.39483e-06
-6.49621e-05
3.90323e-06
-6.33003e-05
9.49622e-06
1.4787e-05
-5.99217e-05
3.32769e-05
0.000131742
3.01221e-05
0.000112251
2.52422e-05
9.14485e-05
1.92545e-05
7.14912e-05
1.2711e-05
5.3671e-05
6.01657e-06
3.85289e-05
-5.55783e-07
2.61327e-05
-6.8307e-06
1.62954e-05
-1.27185e-05
8.68922e-06
-1.82003e-05
2.9021e-06
-2.33319e-05
-1.49134e-06
-2.82038e-05
-4.86544e-06
-3.28949e-05
-7.46282e-06
-3.74213e-05
-9.4183e-06
-4.17739e-05
-1.07803e-05
-4.59305e-05
-1.15475e-05
-4.9826e-05
-1.16953e-05
-5.33252e-05
-1.11553e-05
-5.62772e-05
-9.85039e-06
-5.849e-05
-7.72972e-06
-5.97307e-05
-4.85336e-06
-5.97531e-05
-1.37243e-06
-5.83473e-05
2.49737e-06
-5.5307e-05
6.45599e-06
1.00492e-05
-5.05692e-05
3.89161e-05
0.000132274
3.62191e-05
0.000114948
3.17151e-05
9.59524e-05
2.59824e-05
7.72239e-05
1.95775e-05
6.00759e-05
1.29351e-05
4.51712e-05
6.36151e-06
3.27063e-05
6.16016e-08
2.25953e-05
-5.84346e-06
1.45943e-05
-1.13098e-05
8.36842e-06
-1.63559e-05
3.55477e-06
-2.10431e-05
-1.78203e-07
-2.54296e-05
-3.07631e-06
-2.95427e-05
-5.3052e-06
-3.33798e-05
-6.94326e-06
-3.69178e-05
-8.00944e-06
-4.01241e-05
-8.48894e-06
-4.2915e-05
-8.36436e-06
-4.51686e-05
-7.59686e-06
-4.67349e-05
-6.1634e-06
-4.74345e-05
-4.15379e-06
-4.70859e-05
-1.72105e-06
-4.55525e-05
9.64057e-07
-4.28033e-05
3.70678e-06
6.28621e-06
-3.90403e-05
4.5371e-05
0.000132179
4.33071e-05
0.000117012
3.93504e-05
9.99092e-05
3.4027e-05
8.25473e-05
2.78907e-05
6.62122e-05
2.14034e-05
5.16585e-05
1.49072e-05
3.92025e-05
8.63627e-06
2.88662e-05
2.73809e-06
2.04925e-05
-2.71733e-06
1.38238e-05
-7.72282e-06
8.56026e-06
-1.23116e-05
4.41062e-06
-1.65207e-05
1.13278e-06
-2.03737e-05
-1.45224e-06
-2.38644e-05
-3.45257e-06
-2.69617e-05
-4.91214e-06
-2.96258e-05
-5.82487e-06
-3.18133e-05
-6.1768e-06
-3.34684e-05
-5.94182e-06
-3.45133e-05
-5.1185e-06
-3.48631e-05
-3.80392e-06
-3.4441e-05
-2.14315e-06
-3.32087e-05
-2.68236e-07
-3.12003e-05
1.6984e-06
3.63773e-06
-2.85519e-05
5.25486e-05
0.00013129
5.13137e-05
0.000118247
4.81121e-05
0.000103111
4.33952e-05
8.72642e-05
3.76976e-05
7.19098e-05
3.15e-05
5.78561e-05
2.51783e-05
4.55243e-05
1.90007e-05
3.50438e-05
1.31416e-05
2.63516e-05
7.69643e-06
1.9269e-05
2.69766e-06
1.3559e-05
-1.86472e-06
8.97301e-06
-6.01601e-06
5.28406e-06
-9.77407e-06
2.30582e-06
-1.3132e-05
-9.46514e-08
-1.60592e-05
-1.98494e-06
-1.85203e-05
-3.36375e-06
-2.0493e-05
-4.20412e-06
-2.19565e-05
-4.47826e-06
-2.28788e-05
-4.1962e-06
-2.3223e-05
-3.45977e-06
-2.29656e-05
-2.40053e-06
-2.21079e-05
-1.12599e-06
-2.06856e-05
2.76127e-07
1.72456e-06
-1.87724e-05
6.02826e-05
0.000129457
6.00723e-05
0.000118457
5.78565e-05
0.000105327
5.39842e-05
9.11366e-05
4.89438e-05
7.69502e-05
4.32185e-05
6.35814e-05
3.72118e-05
5.15311e-05
3.12266e-05
4.10289e-05
2.54705e-05
3.21077e-05
2.00672e-05
2.46722e-05
1.50735e-05
1.85528e-05
1.04984e-05
1.35481e-05
6.32785e-06
9.45462e-06
2.54992e-06
6.08375e-06
-8.2317e-07
3.27844e-06
-3.75811e-06
9.50007e-07
-6.23903e-06
-8.8283e-07
-8.2669e-06
-2.17625e-06
-9.83276e-06
-2.91241e-06
-1.09029e-05
-3.12603e-06
-1.14516e-05
-2.91114e-06
-1.14792e-05
-2.37292e-06
-1.10014e-05
-1.60376e-06
-1.00502e-05
-6.75066e-07
3.49137e-07
-8.67477e-06
6.83408e-05
0.000126575
6.9322e-05
0.000117476
6.83194e-05
0.000106329
6.55552e-05
9.39008e-05
6.14375e-05
8.10678e-05
5.64246e-05
6.85943e-05
5.0933e-05
5.70227e-05
4.52966e-05
4.66653e-05
3.97584e-05
3.76459e-05
3.44767e-05
2.99539e-05
2.95374e-05
2.34922e-05
2.49708e-05
1.81146e-05
2.07747e-05
1.36508e-05
1.69424e-05
9.91609e-06