/*--------------------------------*- C++ -*----------------------------------*\
| =========                 |                                                 |
| \\      /  F ield         | OpenFOAM: The Open Source CFD Toolbox           |
|  \\    /   O peration     | Version:  v2012                                 |
|   \\  /    A nd           | Website:  www.openfoam.com                      |
|    \\/     M anipulation  |                                                 |
\*---------------------------------------------------------------------------*/
FoamFile
{
    version     2.0;
    format      ascii;
    class       volVectorField;
    location    "501";
    object      U;
}
// * * * * * * * * * * * * * * * * * * * * * * * * * * * * * * * * * * * * * //

dimensions      [0 1 -1 0 0 0 0];


internalField   nonuniform List<vector> 
6556
(
(6.77691e-05 -0.999785 0)
(0.000176791 -1.00003 0)
(0.000122019 -1.00002 0)
(6.34953e-05 -1.00001 0)
(1.97194e-05 -1.00001 0)
(-1.95781e-05 -1.00001 0)
(-6.33769e-05 -1.00001 0)
(-0.000121943 -1.00002 0)
(-0.000176776 -1.00003 0)
(-6.77644e-05 -0.999785 0)
(0.00027528 -0.99952 0)
(0.000328574 -1.00011 0)
(0.000251672 -1.00012 0)
(0.000150332 -1.00011 0)
(4.9651e-05 -1.0001 0)
(-4.9218e-05 -1.0001 0)
(-0.000149967 -1.00011 0)
(-0.000251414 -1.00012 0)
(-0.000328533 -1.00011 0)
(-0.000275267 -0.99952 0)
(0.000339774 -0.99913 0)
(0.000373989 -1.00014 0)
(0.000302919 -1.00025 0)
(0.000194325 -1.00025 0)
(6.62863e-05 -1.00025 0)
(-6.54489e-05 -1.00025 0)
(-0.000193585 -1.00025 0)
(-0.000302337 -1.00025 0)
(-0.000373486 -1.00014 0)
(-0.000339614 -0.999131 0)
(0.000343196 -0.998693 0)
(0.000368241 -1.00012 0)
(0.000311888 -1.00036 0)
(0.00020838 -1.00041 0)
(7.2432e-05 -1.00042 0)
(-7.10246e-05 -1.00042 0)
(-0.000207121 -1.00041 0)
(-0.000310869 -1.00036 0)
(-0.000367568 -1.00013 0)
(-0.000342872 -0.998693 0)
(0.000330497 -0.998272 0)
(0.000354058 -1.0001 0)
(0.000306736 -1.00046 0)
(0.000207514 -1.00057 0)
(7.31409e-05 -1.0006 0)
(-7.09098e-05 -1.0006 0)
(-0.000205499 -1.00057 0)
(-0.000305093 -1.00047 0)
(-0.000353021 -1.0001 0)
(-0.000329969 -0.998274 0)
(0.000312931 -0.997882 0)
(0.000333683 -1.00007 0)
(0.000296102 -1.00056 0)
(0.000200841 -1.00072 0)
(7.14409e-05 -1.00077 0)
(-6.80119e-05 -1.00077 0)
(-0.000197744 -1.00072 0)
(-0.000293652 -1.00056 0)
(-0.000332056 -1.00007 0)
(-0.000312115 -0.997885 0)
(0.000295044 -0.997517 0)
(0.000313504 -1.00004 0)
(0.000279936 -1.00064 0)
(0.000190998 -1.00086 0)
(6.86492e-05 -1.00093 0)
(-6.34095e-05 -1.00093 0)
(-0.000186271 -1.00086 0)
(-0.000276229 -1.00064 0)
(-0.000310987 -1.00005 0)
(-0.000293859 -0.997522 0)
(0.00027876 -0.997173 0)
(0.000295514 -1.00002 0)
(0.000264782 -1.00072 0)
(0.000181274 -1.00099 0)
(6.61289e-05 -1.00109 0)
(-5.81092e-05 -1.00109 0)
(-0.000174035 -1.00099 0)
(-0.000259046 -1.00073 0)
(-0.00029165 -1.00002 0)
(-0.000276975 -0.99718 0)
(0.0002648 -0.996845 0)
(0.000280549 -0.999996 0)
(0.000252269 -1.0008 0)
(0.000173261 -1.00111 0)
(6.46871e-05 -1.00123 0)
(-5.24359e-05 -1.00123 0)
(-0.000162199 -1.00112 0)
(-0.000243471 -1.00081 0)
(-0.000274651 -1.00001 0)
(-0.000262042 -0.996856 0)
(0.000253317 -0.996532 0)
(0.00026884 -0.999974 0)
(0.000242783 -1.00087 0)
(0.00016766 -1.00123 0)
(6.48438e-05 -1.00137 0)
(-4.61777e-05 -1.00137 0)
(-0.000150801 -1.00124 0)
(-0.000229372 -1.00088 0)
(-0.000259898 -0.999989 0)
(-0.000249108 -0.996549 0)
(0.000244229 -0.996229 0)
(0.000260371 -0.999954 0)
(0.000236562 -1.00094 0)
(0.000164996 -1.00134 0)
(6.71684e-05 -1.0015 0)
(-3.88015e-05 -1.0015 0)
(-0.000139382 -1.00135 0)
(-0.000216208 -1.00096 0)
(-0.000246871 -0.999976 0)
(-0.000237891 -0.996255 0)
(0.000237467 -0.995934 0)
(0.000255307 -0.999933 0)
(0.000234013 -1.001 0)
(0.000165882 -1.00144 0)
(7.2457e-05 -1.00162 0)
(-2.94637e-05 -1.00163 0)
(-0.000127143 -1.00146 0)
(-0.000203225 -1.00103 0)
(-0.000234876 -0.999967 0)
(-0.00022799 -0.995974 0)
(0.000233114 -0.995643 0)
(0.000254144 -0.99991 0)
(0.000236086 -1.00106 0)
(0.000171422 -1.00155 0)
(8.19826e-05 -1.00174 0)
(-1.68761e-05 -1.00175 0)
(-0.000112936 -1.00157 0)
(-0.000189506 -1.0011 0)
(-0.000223199 -0.999962 0)
(-0.000219008 -0.995705 0)
(0.000231451 -0.995352 0)
(0.000257577 -0.999884 0)
(0.00024415 -1.00112 0)
(0.000183593 -1.00164 0)
(9.78246e-05 -1.00186 0)
(9.25176e-07 -1.00187 0)
(-9.51949e-05 -1.00168 0)
(-0.000174038 -1.00118 0)
(-0.000211275 -0.999962 0)
(-0.000210657 -0.995446 0)
(0.000232946 -0.995057 0)
(0.000266673 -0.999851 0)
(0.000259737 -1.00117 0)
(0.000205467 -1.00173 0)
(0.00012322 -1.00197 0)
(2.69307e-05 -1.00199 0)
(-7.17506e-05 -1.00179 0)
(-0.000155773 -1.00126 0)
(-0.000198969 -0.99997 0)
(-0.0002031 -0.995199 0)
(0.00023862 -0.994752 0)
(0.000284398 -0.999807 0)
(0.000288074 -1.00121 0)
(0.000241833 -1.00182 0)
(0.000163519 -1.00208 0)
(6.59491e-05 -1.00212 0)
(-3.94368e-05 -1.00191 0)
(-0.000133884 -1.00136 0)
(-0.000186798 -0.999987 0)
(-0.000197756 -0.994962 0)
(0.000249989 -0.994427 0)
(0.000314894 -0.999746 0)
(0.000334712 -1.00123 0)
(0.000300443 -1.00189 0)
(0.000226339 -1.00219 0)
(0.000125845 -1.00225 0)
(6.8281e-06 -1.00205 0)
(-0.000108662 -1.00147 0)
(-0.000180283 -1.00002 0)
(-0.000198982 -0.99473 0)
(0.000269236 -0.994069 0)
(0.000364181 -0.999657 0)
(0.000409059 -1.00124 0)
(0.000394045 -1.00195 0)
(0.000328718 -1.0023 0)
(0.000220989 -1.00239 0)
(7.57103e-05 -1.00222 0)
(-8.52943e-05 -1.00162 0)
(-0.00020322 -1.00009 0)
(-0.000226648 -0.994468 0)
(0.000299397 -0.993658 0)
(0.000440674 -0.999525 0)
(0.000525202 -1.0012 0)
(0.000542215 -1.00199 0)
(0.000496687 -1.0024 0)
(0.000384418 -1.00256 0)
(0.00020144 -1.00243 0)
(-3.68115e-05 -1.00184 0)
(-0.000229316 -1.00017 0)
(-0.000170105 -0.994142 0)
(0.000343693 -0.993169 0)
(0.000554516 -0.999325 0)
(0.000700781 -1.00112 0)
(0.000771854 -1.00199 0)
(0.000763269 -1.00249 0)
(0.000657932 -1.00275 0)
(0.000406974 -1.00275 0)
(-1.95153e-05 -1.00229 0)
(-0.000658713 -1.00086 0)
(-0.000875635 -0.996521 0)
(0.000409085 -0.992565 0)
(0.000717875 -0.999024 0)
(0.000959642 -1.00093 0)
(0.00112432 -1.00191 0)
(0.00120457 -1.00253 0)
(0.0011963 -1.00293 0)
(0.00105202 -1.00317 0)
(0.000903351 -1.00295 0)
(0.00170634 -1.0009 0)
(0.00916758 -0.98178 0)
(0.000499991 -0.991799 0)
(0.000939237 -0.998575 0)
(0.00131677 -1.00061 0)
(0.00161896 -1.00169 0)
(0.00184173 -1.00241 0)
(0.00199749 -1.00293 0)
(0.00209128 -1.00316 0)
(0.00199226 -1.00287 0)
(0.00236595 -0.999477 0)
(0.016606 -0.96414 0)
(0.000616525 -0.990821 0)
(0.00122161 -0.997929 0)
(0.00177597 -1.00009 0)
(0.00225673 -1.00127 0)
(0.0026604 -1.00208 0)
(0.00301451 -1.00267 0)
(0.00337943 -1.0029 0)
(0.00362975 -1.00211 0)
(0.00356528 -0.996936 0)
(0.0206155 -0.949608 0)
(0.000759249 -0.989577 0)
(0.001567 -0.997031 0)
(0.0023396 -0.99932 0)
(0.00304022 -1.00059 0)
(0.00366699 -1.00149 0)
(0.00425685 -1.00211 0)
(0.00493629 -1.00222 0)
(0.00584054 -1.00071 0)
(0.00590782 -0.992823 0)
(0.0242893 -0.933333 0)
(0.000929604 -0.988014 0)
(0.00197936 -0.99583 0)
(0.0030134 -0.99825 0)
(0.00397617 -0.999609 0)
(0.00487019 -1.00057 0)
(0.00573715 -1.0012 0)
(0.00672763 -1.00109 0)
(0.00824796 -0.998611 0)
(0.00883402 -0.987176 0)
(0.0269701 -0.914849 0)
(0.0011299 -0.986072 0)
(0.00246457 -0.994269 0)
(0.003806 -0.996825 0)
(0.00507417 -0.998274 0)
(0.00627668 -0.999292 0)
(0.00745981 -0.999877 0)
(0.00877483 -0.999459 0)
(0.0108458 -0.995817 0)
(0.0122293 -0.980372 0)
(0.0292837 -0.896908 0)
(0.00136343 -0.983687 0)
(0.00303083 -0.992287 0)
(0.00473103 -0.994987 0)
(0.00635353 -0.996528 0)
(0.00791127 -0.997593 0)
(0.00945701 -0.998109 0)
(0.0111341 -0.997305 0)
(0.0137126 -0.992364 0)
(0.0160731 -0.972677 0)
(0.0311692 -0.880394 0)
(0.0016347 -0.980784 0)
(0.00369063 -0.989816 0)
(0.00580795 -0.992669 0)
(0.00784391 -0.994307 0)
(0.0098158 -0.995415 0)
(0.0117871 -0.99584 0)
(0.013897 -0.994592 0)
(0.0169704 -0.988263 0)
(0.0204118 -0.964368 0)
(0.0336966 -0.865536 0)
(0.0019509 -0.977278 0)
(0.00446192 -0.986775 0)
(0.00705883 -0.98979 0)
(0.00957918 -0.991529 0)
(0.0120364 -0.992674 0)
(0.0145115 -0.99298 0)
(0.0171599 -0.991216 0)
(0.020767 -0.983393 0)
(0.0252855 -0.955464 0)
(0.0378357 -0.85196 0)
(0.0023177 -0.97307 0)
(0.00535204 -0.983099 0)
(0.00850968 -0.986263 0)
(0.011591 -0.988102 0)
(0.0146088 -0.989272 0)
(0.0176603 -0.989425 0)
(0.0209289 -0.987069 0)
(0.0251245 -0.97764 0)
(0.0304557 -0.945896 0)
(0.0426328 -0.839698 0)
(0.00273624 -0.968057 0)
(0.00637193 -0.978624 0)
(0.0101873 -0.981985 0)
(0.0139089 -0.983926 0)
(0.0175655 -0.985113 0)
(0.0212607 -0.985087 0)
(0.0252013 -0.982094 0)
(0.0300022 -0.971037 0)
(0.0361209 -0.935881 0)
(0.0475069 -0.829079 0)
(0.00321538 -0.96212 0)
(0.00754501 -0.973269 0)
(0.0121136 -0.976846 0)
(0.0165668 -0.978897 0)
(0.0209496 -0.9801 0)
(0.0253643 -0.979888 0)
(0.0300287 -0.97626 0)
(0.0354668 -0.963643 0)
(0.0423948 -0.925476 0)
(0.0526765 -0.82009 0)
(0.00376383 -0.955119 0)
(0.00889147 -0.966906 0)
(0.0143196 -0.97072 0)
(0.0196095 -0.972897 0)
(0.0248181 -0.974128 0)
(0.0300421 -0.973742 0)
(0.0354909 -0.96951 0)
(0.0416298 -0.95544 0)
(0.0491559 -0.915089 0)
(0.0583466 -0.812602 0)
(0.00439026 -0.946896 0)
(0.010434 -0.959387 0)
(0.0168444 -0.963466 0)
(0.023091 -0.965789 0)
(0.02924 -0.967069 0)
(0.0353789 -0.966541 0)
(0.0416939 -0.96178 0)
(0.0485723 -0.946515 0)
(0.056523 -0.904901 0)
(0.0647554 -0.806441 0)
(0.00510405 -0.937274 0)
(0.0121976 -0.950546 0)
(0.0197307 -0.954923 0)
(0.0270709 -0.957418 0)
(0.0342928 -0.958777 0)
(0.0414718 -0.958159 0)
(0.048759 -0.952989 0)
(0.0564353 -0.936892 0)
(0.0647489 -0.894934 0)
(0.0722112 -0.801402 0)
(0.00591466 -0.926056 0)
(0.0142075 -0.940193 0)
(0.0230215 -0.944908 0)
(0.0316102 -0.947602 0)
(0.0400581 -0.949078 0)
(0.0484252 -0.948439 0)
(0.0568188 -0.94302 0)
(0.0653958 -0.926511 0)
(0.074116 -0.885104 0)
(0.0810422 -0.797236 0)
(0.0068312 -0.913024 0)
(0.0164868 -0.928121 0)
(0.0267565 -0.933217 0)
(0.0367658 -0.936139 0)
(0.0466123 -0.937769 0)
(0.0563393 -0.937187 0)
(0.066004 -0.931707 0)
(0.0756329 -0.915228 0)
(0.0849004 -0.875214 0)
(0.0915873 -0.793619 0)
(0.00785831 -0.897941 0)
(0.019054 -0.914101 0)
(0.0309676 -0.919625 0)
(0.0425832 -0.922803 0)
(0.0540166 -0.924624 0)
(0.0652961 -0.924178 0)
(0.0764257 -0.91883 0)
(0.0873055 -0.902818 0)
(0.0973528 -0.864953 0)
(0.104185 -0.790131 0)
(0.00901472 -0.880555 0)
(0.0219205 -0.897887 0)
(0.0356743 -0.903893 0)
(0.04909 -0.907354 0)
(0.0623072 -0.909395 0)
(0.0753443 -0.909158 0)
(0.0881546 -0.904123 0)
(0.100523 -0.888975 0)
(0.111655 -0.853892 0)
(0.119093 -0.786224 0)
(0.0103092 -0.860604 0)
(0.0250919 -0.879251 0)
(0.0408811 -0.885781 0)
(0.05629 -0.889545 0)
(0.0714869 -0.891828 0)
(0.086488 -0.891857 0)
(0.101203 -0.887289 0)
(0.11532 -0.873335 0)
(0.12789 -0.841521 0)
(0.136449 -0.78125 0)
(0.0117272 -0.837807 0)
(0.0285661 -0.857953 0)
(0.0465761 -0.865051 0)
(0.0641607 -0.869137 0)
(0.0815202 -0.871675 0)
(0.0986788 -0.872009 0)
(0.115513 -0.868022 0)
(0.131644 -0.855504 0)
(0.146025 -0.827273 0)
(0.156249 -0.774483 0)
(0.0132615 -0.811909 0)
(0.0323295 -0.833764 0)
(0.0527297 -0.841485 0)
(0.0726526 -0.845914 0)
(0.0923327 -0.848713 0)
(0.111815 -0.84937 0)
(0.130958 -0.846032 0)
(0.149343 -0.835088 0)
(0.165894 -0.810572 0)
(0.178318 -0.765158 0)
(0.0149051 -0.782666 0)
(0.036361 -0.806475 0)
(0.0592978 -0.814893 0)
(0.0816929 -0.819693 0)
(0.103815 -0.822759 0)
(0.125743 -0.823742 0)
(0.147337 -0.821073 0)
(0.168171 -0.811737 0)
(0.187199 -0.790883 0)
(0.202297 -0.752527 0)
(0.0166514 -0.74985 0)
(0.0406369 -0.775904 0)
(0.0662277 -0.785122 0)
(0.0911921 -0.790341 0)
(0.11583 -0.793688 0)
(0.140272 -0.794991 0)
(0.164395 -0.792972 0)
(0.187798 -0.785182 0)
(0.209516 -0.767769 0)
(0.22765 -0.735943 0)
(0.0184956 -0.71325 0)
(0.0451357 -0.741898 0)
(0.0734655 -0.752064 0)
(0.101054 -0.757781 0)
(0.128228 -0.761446 0)
(0.155186 -0.763069 0)
(0.181838 -0.761654 0)
(0.207835 -0.755274 0)
(0.232337 -0.740949 0)
(0.253705 -0.71494 0)
(0.0204368 -0.672665 0)
(0.0498446 -0.704338 0)
(0.0809649 -0.715664 0)
(0.111186 -0.722004 0)
(0.140858 -0.726058 0)
(0.170262 -0.728019 0)
(0.199359 -0.72716 0)
(0.227873 -0.722012 0)
(0.255111 -0.710337 0)
(0.279721 -0.689306 0)
(0.0224813 -0.627898 0)
(0.0547648 -0.663133 0)
(0.0886953 -0.675916 0)
(0.121512 -0.683069 0)
(0.153581 -0.687632 0)
(0.18529 -0.689986 0)
(0.216665 -0.689649 0)
(0.247514 -0.685551 0)
(0.277305 -0.676062 0)
(0.304973 -0.659119 0)
(0.0246441 -0.578736 0)
(0.0599173 -0.618209 0)
(0.0966486 -0.63287 0)
(0.131972 -0.641105 0)
(0.166277 -0.646362 0)
(0.200082 -0.64921 0)
(0.23349 -0.649397 0)
(0.266404 -0.646188 0)
(0.298448 -0.638449 0)
(0.328826 -0.624738 0)
(0.0269511 -0.524933 0)
(0.0653449 -0.569509 0)
(0.104838 -0.586629 0)
(0.142525 -0.596319 0)
(0.178839 -0.602519 0)
(0.214465 -0.606014 0)
(0.249604 -0.606769 0)
(0.284245 -0.604337 0)
(0.318161 -0.597979 0)
(0.35079 -0.586746 0)
(0.0294409 -0.466188 0)
(0.0711076 -0.516986 0)
(0.113287 -0.537367 0)
(0.153125 -0.549004 0)
(0.191148 -0.556459 0)
(0.228263 -0.560795 0)
(0.264782 -0.562197 0)
(0.30078 -0.560478 0)
(0.336152 -0.555218 0)
(0.37053 -0.545851 0)
(0.0321478 -0.402144 0)
(0.0772664 -0.46063 0)
(0.121983 -0.485333 0)
(0.163664 -0.499532 0)
(0.20302 -0.508609 0)
(0.24124 -0.514001 0)
(0.278766 -0.516149 0)
(0.315746 -0.515112 0)
(0.352173 -0.510743 0)
(0.387824 -0.502779 0)
(0.0351936 -0.332339 0)
(0.0837824 -0.400535 0)
(0.130744 -0.430971 0)
(0.173872 -0.448442 0)
(0.214123 -0.459495 0)
(0.253027 -0.466123 0)
(0.291184 -0.469088 0)
(0.328805 -0.468705 0)
(0.365944 -0.465072 0)
(0.402476 -0.458173 0)
(0.0385295 -0.25686 0)
(0.090503 -0.336977 0)
(0.138999 -0.374451 0)
(0.183028 -0.396141 0)
(0.223748 -0.40963 0)
(0.26296 -0.417645 0)
(0.301436 -0.421438 0)
(0.339436 -0.421645 0)
(0.377049 -0.418607 0)
(0.414198 -0.41252 0)
(0.0394484 -0.17366 0)
(0.095249 -0.273063 0)
(0.145579 -0.317823 0)
(0.190192 -0.343555 0)
(0.23087 -0.359515 0)
(0.27 -0.368929 0)
(0.308564 -0.373482 0)
(0.346811 -0.374165 0)
(0.384806 -0.371572 0)
(0.422485 -0.366089 0)
(0.0333168 -0.0855276 0)
(0.0906255 -0.198367 0)
(0.145019 -0.258387 0)
(0.192082 -0.291044 0)
(0.233353 -0.309801 0)
(0.272468 -0.320367 0)
(0.311113 -0.325405 0)
(0.34966 -0.326333 0)
(0.388148 -0.323985 0)
(0.426483 -0.318908 0)
(0.0208717 -0.018396 0)
(0.0718152 -0.118514 0)
(0.129105 -0.191787 0)
(0.181079 -0.235136 0)
(0.225758 -0.259033 0)
(0.266665 -0.271467 0)
(0.306401 -0.276939 0)
(0.345891 -0.277842 0)
(0.385366 -0.275473 0)
(0.424775 -0.270588 0)
(0.00872083 0.0219277 0)
(0.0459409 -0.0472785 0)
(0.0975536 -0.120585 0)
(0.151151 -0.172201 0)
(0.200433 -0.203035 0)
(0.245817 -0.219362 0)
(0.289097 -0.226422 0)
(0.331393 -0.227738 0)
(0.373229 -0.22543 0)
(0.414752 -0.220705 0)
(-0.00473812 0.0415141 0)
(0.0213439 0.00158985 0)
(0.0584911 -0.0569771 0)
(0.10426 -0.10662 0)
(0.153341 -0.140188 0)
(0.202794 -0.160064 0)
(0.251428 -0.169848 0)
(0.298952 -0.172859 0)
(0.345443 -0.171518 0)
(0.39106 -0.167475 0)
(-0.0204455 0.0425548 0)
(-0.00817989 0.0201074 0)
(0.015198 -0.0142273 0)
(0.0475141 -0.0502164 0)
(0.0893021 -0.0780397 0)
(0.138123 -0.0958184 0)
(0.190872 -0.105234 0)
(0.244408 -0.109088 0)
(0.297169 -0.108844 0)
(0.348859 -0.105736 0)
(-0.0254508 0.0119697 0)
(-0.0433053 0.000898006 0)
(-0.0482896 -0.0151419 0)
(-0.0236689 -0.0293784 0)
(0.00936433 -0.0408397 0)
(0.0539071 -0.0466609 0)
(0.105637 -0.0502216 0)
(0.165956 -0.0529733 0)
(0.22779 -0.0536932 0)
(0.287264 -0.0521968 0)
(-0.0410306 -0.154888 0)
(-0.121244 0.0124734 0)
(-0.10646 0.0182408 0)
(-0.0909706 0.02063 0)
(-0.0729147 0.0234315 0)
(-0.0510172 0.0250569 0)
(-0.0290751 0.0258951 0)
(-0.00727706 0.0264002 0)
(0.0141758 0.025388 0)
(0.0347892 0.0236166 0)
(0.0550794 0.0219923 0)
(0.0741326 0.0198251 0)
(0.0897409 0.0167787 0)
(0.10235 0.0133552 0)
(0.111672 0.0097629 0)
(0.11747 0.00662349 0)
(0.119665 0.00327079 0)
(0.117998 -0.000556669 0)
(0.112286 -0.00466853 0)
(0.102197 -0.00889251 0)
(0.0875697 -0.0131134 0)
(0.068501 -0.0169097 0)
(0.0453885 -0.0185439 0)
(0.0202707 -0.0154616 0)
(0.00414996 -0.00794626 0)
(-0.0244423 -0.22798 0)
(-0.0738669 -0.011472 0)
(-0.0803291 0.01939 0)
(-0.0760832 0.0291718 0)
(-0.0655165 0.0359094 0)
(-0.050951 0.0405847 0)
(-0.0337988 0.0433305 0)
(-0.0150268 0.0441865 0)
(0.00434886 0.0428368 0)
(0.0231073 0.0402748 0)
(0.0403462 0.0370117 0)
(0.0556378 0.0325594 0)
(0.0687257 0.0268601 0)
(0.0794019 0.0205385 0)
(0.0874745 0.0139689 0)
(0.092807 0.00726487 0)
(0.0953553 0.000366786 0)
(0.0953609 -0.00674169 0)
(0.0928242 -0.0141604 0)
(0.0876384 -0.0219747 0)
(0.0796248 -0.0300503 0)
(0.0684448 -0.0377366 0)
(0.0540489 -0.0429113 0)
(0.0337814 -0.0414987 0)
(0.0131042 -0.030168 0)
(-0.00414063 -0.302563 0)
(-0.0538129 -0.0433116 0)
(-0.067451 0.0144206 0)
(-0.0685797 0.035766 0)
(-0.0623854 0.0489472 0)
(-0.0514242 0.057785 0)
(-0.037412 0.0630948 0)
(-0.0217288 0.0652495 0)
(-0.00499591 0.0645959 0)
(0.0120822 0.0616062 0)
(0.0278151 0.0565754 0)
(0.0414031 0.0497534 0)
(0.0528699 0.0414637 0)
(0.0621516 0.0323031 0)
(0.0690751 0.0227033 0)
(0.0736149 0.0129117 0)
(0.0758177 0.00297751 0)
(0.075794 -0.00721652 0)
(0.0736746 -0.0178278 0)
(0.0695645 -0.0289733 0)
(0.0635233 -0.0406161 0)
(0.0554309 -0.0522591 0)
(0.0451026 -0.0621338 0)
(0.0312356 -0.0656522 0)
(0.0154037 -0.0562051 0)
(0.00673453 -0.375502 0)
(-0.0463196 -0.081781 0)
(-0.0643813 0.00381501 0)
(-0.0683471 0.038618 0)
(-0.0644812 0.0593721 0)
(-0.0554211 0.0731866 0)
(-0.0431828 0.081711 0)
(-0.029134 0.0857517 0)
(-0.0141722 0.086037 0)
(0.00106092 0.0824763 0)
(0.0154025 0.0753143 0)
(0.0279293 0.0656352 0)
(0.0384426 0.054425 0)
(0.0468633 0.0422614 0)
(0.0530271 0.0296301 0)
(0.0569949 0.0168662 0)
(0.0589044 0.00410515 0)
(0.0589136 -0.0086875 0)
(0.0571796 -0.0216755 0)
(0.0538442 -0.0350526 0)
(0.0490181 -0.0489288 0)
(0.042711 -0.0631018 0)
(0.0347155 -0.076397 0)
(0.0246352 -0.0849952 0)
(0.0143741 -0.0857311 0)
(0.0158538 -0.436297 0)
(-0.0380573 -0.129794 0)
(-0.0620641 -0.0138912 0)
(-0.06946 0.0374628 0)
(-0.0683876 0.0672973 0)
(-0.0609665 0.0865429 0)
(-0.0502736 0.0984014 0)
(-0.0375153 0.104274 0)
(-0.023905 0.10499 0)
(-0.0103092 0.100816 0)
(0.00262092 0.0922422 0)
(0.014313 0.0803808 0)
(0.0242476 0.0664986 0)
(0.0320837 0.0514554 0)
(0.0377437 0.03597 0)
(0.0413636 0.0205275 0)
(0.043171 0.00532575 0)
(0.0433879 -0.00967758 0)
(0.0421927 -0.0246685 0)
(0.0397315 -0.0398707 0)
(0.0361145 -0.0554483 0)
(0.0313863 -0.0713368 0)
(0.0253793 -0.0867634 0)
(0.0176012 -0.0990692 0)
(0.0114185 -0.105263 0)
(0.0246026 -0.484848 0)
(-0.0270737 -0.182273 0)
(-0.0547235 -0.0388206 0)
(-0.067781 0.0310985 0)
(-0.0702769 0.0717818 0)
(-0.06553 0.097227 0)
(-0.0570054 0.112873 0)
(-0.0461466 0.120753 0)
(-0.0341022 0.12205 0)
(-0.0217846 0.117491 0)
(-0.00987495 0.107836 0)
(0.0010159 0.094169 0)
(0.0103166 0.0777926 0)
(0.0176411 0.0599839 0)
(0.0229169 0.0418195 0)
(0.026332 0.0239848 0)
(0.0281887 0.00672503 0)
(0.028761 -0.010047 0)
(0.02824 -0.0265924 0)
(0.026761 -0.0432027 0)
(0.024416 -0.0600984 0)
(0.0212495 -0.0772854 0)
(0.0171835 -0.0942006 0)
(0.0114598 -0.109041 0)
(0.0081261 -0.118434 0)
(0.0305114 -0.522584 0)
(-0.0136395 -0.233147 0)
(-0.0432186 -0.0709061 0)
(-0.0614082 0.0183119 0)
(-0.0680679 0.0711779 0)
(-0.0674695 0.104052 0)
(-0.0619766 0.124129 0)
(-0.053736 0.134587 0)
(-0.0437745 0.137123 0)
(-0.03304 0.132744 0)
(-0.0222531 0.122318 0)
(-0.0121718 0.107017 0)
(-0.00344644 0.0883515 0)
(0.00348865 0.0679602 0)
(0.0085258 0.0473376 0)
(0.0118815 0.027416 0)
(0.0139233 0.00847906 0)
(0.0149714 -0.00965071 0)
(0.0152233 -0.0273458 0)
(0.0148003 -0.044981 0)
(0.0137782 -0.0628364 0)
(0.0121991 -0.0809776 0)
(0.0100637 -0.0989788 0)
(0.00640893 -0.115527 0)
(0.00561798 -0.126937 0)
(0.0351469 -0.552429 0)
(-0.000414715 -0.278528 0)
(-0.0307857 -0.105114 0)
(-0.0517797 -0.000426023 0)
(-0.0627904 0.0644448 0)
(-0.0664313 0.105609 0)
(-0.0648818 0.131046 0)
(-0.0598197 0.144892 0)
(-0.0525045 0.149386 0)
(-0.0439031 0.145908 0)
(-0.0345388 0.13537 0)
(-0.0253168 0.118935 0)
(-0.0170514 0.0983336 0)
(-0.0103154 0.0756088 0)
(-0.0053252 0.0527343 0)
(-0.00187059 0.0309888 0)
(0.000471226 0.0107175 0)
(0.00207397 -0.00838813 0)
(0.00314838 -0.0268592 0)
(0.00380666 -0.045168 0)
(0.00411279 -0.063645 0)
(0.00410643 -0.0823991 0)
(0.00383095 -0.101108 0)
(0.00221785 -0.118733 0)
(0.003532 -0.131348 0)
(0.0395425 -0.575887 0)
(0.0107947 -0.318736 0)
(-0.0186242 -0.139972 0)
(-0.0411286 -0.0236472 0)
(-0.0556568 0.0521797 0)
(-0.0633912 0.101593 0)
(-0.0657987 0.13299 0)
(-0.064505 0.150966 0)
(-0.060263 0.158156 0)
(-0.0544087 0.156471 0)
(-0.0468777 0.146792 0)
(-0.0385914 0.130008 0)
(-0.0306429 0.10802 0)
(-0.0237997 0.0832548 0)
(-0.018554 0.0582965 0)
(-0.0148025 0.0349092 0)
(-0.0120632 0.0135644 0)
(-0.00987405 -0.00620216 0)
(-0.00797917 -0.0251197 0)
(-0.00626398 -0.0437811 0)
(-0.00467252 -0.0625676 0)
(-0.00316843 -0.0816204 0)
(-0.00171825 -0.100703 0)
(-0.001343 -0.118937 0)
(0.00155602 -0.132221 0)
(0.043996 -0.59457 0)
(0.0204554 -0.354266 0)
(-0.00717613 -0.174221 0)
(-0.0305029 -0.0496781 0)
(-0.0477925 0.0352689 0)
(-0.0592165 0.0924292 0)
(-0.065693 0.129724 0)
(-0.0683197 0.152248 0)
(-0.0677352 0.162504 0)
(-0.0646283 0.163854 0)
(-0.0595467 0.156278 0)
(-0.0523724 0.140272 0)
(-0.0446671 0.117761 0)
(-0.0373246 0.0913914 0)
(-0.0313348 0.064442 0)
(-0.0269419 0.0394181 0)
(-0.0236564 0.0171197 0)
(-0.0208513 -0.00307 0)
(-0.0181627 -0.0221486 0)
(-0.015446 -0.0408717 0)
(-0.0126387 -0.0596837 0)
(-0.009709 -0.0787635 0)
(-0.00668469 -0.097966 0)
(-0.00440672 -0.116538 0)
(-0.000215668 -0.130046 0)
(0.0484919 -0.609608 0)
(0.0289457 -0.38565 0)
(0.00329859 -0.20736 0)
(-0.0204112 -0.0776129 0)
(-0.0398255 0.0144022 0)
(-0.0544753 0.0782946 0)
(-0.0647621 0.121214 0)
(-0.0713358 0.148323 0)
(-0.0747766 0.162894 0)
(-0.0747756 0.167109 0)
(-0.0726124 0.163171 0)
(-0.0671133 0.149503 0)
(-0.0598626 0.127831 0)
(-0.0517275 0.100675 0)
(-0.0443044 0.0718513 0)
(-0.0386056 0.0449315 0)
(-0.0344342 0.0215236 0)
(-0.0309229 0.000994449 0)
(-0.0274553 -0.0180213 0)
(-0.0237966 -0.0365388 0)
(-0.0198478 -0.0551063 0)
(-0.0155796 -0.0739624 0)
(-0.0110876 -0.0930803 0)
(-0.0070421 -0.111861 0)
(-0.00185845 -0.125162 0)
(0.0534027 -0.622046 0)
(0.0366393 -0.413672 0)
(0.0128004 -0.239286 0)
(-0.011033 -0.106801 0)
(-0.0320868 -0.0096734 0)
(-0.0495155 0.0597561 0)
(-0.0632879 0.107711 0)
(-0.0736662 0.139237 0)
(-0.080913 0.158175 0)
(-0.0850974 0.166538 0)
(-0.0859064 0.166607 0)
(-0.0833131 0.156896 0)
(-0.0771342 0.138086 0)
(-0.0684079 0.111743 0)
(-0.0589407 0.0816138 0)
(-0.0507896 0.0523348 0)
(-0.0448224 0.0272154 0)
(-0.0402889 0.00610562 0)
(-0.0359822 -0.0127731 0)
(-0.0314119 -0.0308818 0)
(-0.0263854 -0.0489608 0)
(-0.0208392 -0.0673572 0)
(-0.014895 -0.0862182 0)
(-0.00919439 -0.105163 0)
(-0.00305923 -0.117986 0)
(0.0586665 -0.632796 0)
(0.0438956 -0.439087 0)
(0.0215426 -0.270122 0)
(-0.00227941 -0.136905 0)
(-0.0246729 -0.0363707 0)
(-0.0445201 0.0373491 0)
(-0.0614356 0.0895924 0)
(-0.0754048 0.125107 0)
(-0.0865593 0.147896 0)
(-0.0948279 0.16084 0)
(-0.0995125 0.165468 0)
(-0.100943 0.160979 0)
(-0.0970713 0.147436 0)
(-0.088876 0.124569 0)
(-0.0776887 0.0950115 0)
(-0.0658382 0.0634327 0)
(-0.0561948 0.035271 0)
(-0.0494816 0.0127163 0)
(-0.0440163 -0.00630286 0)
(-0.0384499 -0.0239295 0)
(-0.0323639 -0.041302 0)
(-0.0255224 -0.058943 0)
(-0.0179412 -0.0771842 0)
(-0.0103174 -0.0961281 0)
(-0.00321341 -0.109632 0)
(0.0645746 -0.642515 0)
(0.0511852 -0.462583 0)
(0.0299596 -0.300074 0)
(0.00617086 -0.167761 0)
(-0.0173442 -0.0653179 0)
(-0.0392453 0.011515 0)
(-0.0589094 0.0672552 0)
(-0.0761308 0.106274 0)
(-0.09088 0.132615 0)
(-0.103055 0.149409 0)
(-0.112263 0.158473 0)
(-0.118068 0.160753 0)
(-0.119048 0.153409 0)
(-0.113556 0.137164 0)
(-0.102802 0.111909 0)
(-0.0880552 0.0806525 0)
(-0.0726684 0.0486244 0)
(-0.0606933 0.0221544 0)
(-0.0524104 0.00190392 0)
(-0.0453608 -0.0154413 0)
(-0.038127 -0.0320344 0)
(-0.029951 -0.048729 0)
(-0.0202352 -0.0661211 0)
(-0.00994546 -0.0847557 0)
(-0.00507396 -0.101348 0)
(0.0715507 -0.651684 0)
(0.0590763 -0.484724 0)
(0.0387077 -0.32934 0)
(0.0148908 -0.199262 0)
(-0.00953438 -0.0961418 0)
(-0.0331102 -0.0172263 0)
(-0.0550776 0.0412239 0)
(-0.0751107 0.0831531 0)
(-0.0930743 0.112528 0)
(-0.108852 0.132675 0)
(-0.122201 0.145614 0)
(-0.132589 0.152387 0)
(-0.139444 0.153774 0)
(-0.140443 0.145074 0)
(-0.133851 0.128353 0)
(-0.120751 0.102872 0)
(-0.102105 0.0715445 0)
(-0.0818611 0.0396095 0)
(-0.0657379 0.0136601 0)
(-0.0543793 -0.00557906 0)
(-0.0446317 -0.0214926 0)
(-0.0342495 -0.0366267 0)
(-0.0205727 -0.0517955 0)
(-0.00132153 -0.0671593 0)
(0.0158283 -0.085129 0)
(0.0800213 -0.660568 0)
(0.0681704 -0.506023 0)
(0.0484089 -0.358174 0)
(0.0245688 -0.231214 0)
(-0.000526611 -0.128448 0)
(-0.0253868 -0.0482797 0)
(-0.0491503 0.0121911 0)
(-0.0713894 0.0564451 0)
(-0.0919565 0.0882781 0)
(-0.110796 0.111179 0)
(-0.127853 0.127207 0)
(-0.142721 0.137704 0)
(-0.154791 0.143562 0)
(-0.163448 0.144998 0)
(-0.165744 0.137154 0)
(-0.159912 0.122167 0)
(-0.146387 0.0992161 0)
(-0.125595 0.0706159 0)
(-0.100855 0.0405883 0)
(-0.0780051 0.0143073 0)
(-0.0607903 -0.00518263 0)
(-0.0457381 -0.018517 0)
(-0.0311996 -0.0267003 0)
(-0.0161685 -0.0274176 0)
(-0.00110913 -0.0158303 0)
(0.0904084 -0.669187 0)
(0.0790991 -0.526564 0)
(0.0598436 -0.386736 0)
(0.0361077 -0.263625 0)
(0.0105214 -0.161865 0)
(-0.0152686 -0.0810584 0)
(-0.040296 -0.0190697 0)
(-0.0640712 0.02704 0)
(-0.0863559 0.0606943 0)
(-0.107496 0.0855308 0)
(-0.1276 0.103912 0)
(-0.145954 0.117097 0)
(-0.162528 0.126134 0)
(-0.177016 0.131473 0)
(-0.188051 0.13278 0)
(-0.193989 0.127675 0)
(-0.19271 0.11601 0)
(-0.183875 0.0982982 0)
(-0.167218 0.0755375 0)
(-0.145939 0.0519464 0)
(-0.124595 0.0312788 0)
(-0.107315 0.0134372 0)
(-0.0990212 -0.00465678 0)
(-0.103354 -0.0278927 0)
(-0.126887 -0.0655877 0)
(0.103175 -0.677447 0)
(0.0925116 -0.546389 0)
(0.0738709 -0.414841 0)
(0.0503494 -0.296205 0)
(0.0244904 -0.196038 0)
(-0.00193051 -0.115043 0)
(-0.0278429 -0.0518281 0)
(-0.0526476 -0.00407551 0)
(-0.0759862 0.0311102 0)
(-0.0982207 0.0570335 0)
(-0.119734 0.0768023 0)
(-0.14038 0.091915 0)
(-0.15978 0.103053 0)
(-0.177884 0.110827 0)
(-0.194591 0.115208 0)
(-0.209135 0.115902 0)
(-0.220295 0.112276 0)
(-0.226375 0.101327 0)
(-0.229169 0.0842581 0)
(-0.22745 0.0602356 0)
(-0.224123 0.0321278 0)
(-0.222283 0.00142129 0)
(-0.223961 -0.0316175 0)
(-0.230571 -0.0681569 0)
(-0.239476 -0.109569 0)
(0.118695 -0.684975 0)
(0.108929 -0.565323 0)
(0.0911308 -0.442309 0)
(0.0680371 -0.328668 0)
(0.0421763 -0.230629 0)
(0.0154038 -0.149842 0)
(-0.0110981 -0.0856325 0)
(-0.0365866 -0.0362376 0)
(-0.0606421 0.00072637 0)
(-0.0831635 0.0280026 0)
(-0.1046 0.0485506 0)
(-0.125408 0.0644884 0)
(-0.145547 0.0768751 0)
(-0.16495 0.0859339 0)
(-0.18352 0.0918247 0)
(-0.201336 0.0944511 0)
(-0.218184 0.0931917 0)
(-0.233303 0.0871605 0)
(-0.245597 0.0756358 0)
(-0.254534 0.0580774 0)
(-0.259572 0.0345376 0)
(-0.26193 0.00589851 0)
(-0.262639 -0.0265822 0)
(-0.257497 -0.0605648 0)
(-0.247927 -0.09233 0)
(0.137209 -0.691213 0)
(0.12877 -0.582922 0)
(0.112174 -0.46878 0)
(0.0898653 -0.36067 0)
(0.0643405 -0.265272 0)
(0.0375372 -0.185075 0)
(0.0107731 -0.120089 0)
(-0.015082 -0.0690806 0)
(-0.0394817 -0.0300975 0)
(-0.0622073 -0.000777733 0)
(-0.0833902 0.0212419 0)
(-0.103286 0.038126 0)
(-0.122354 0.0511942 0)
(-0.140823 0.0609819 0)
(-0.158601 0.0676295 0)
(-0.175638 0.0710505 0)
(-0.191831 0.0711151 0)
(-0.206757 0.0672993 0)
(-0.21984 0.059158 0)
(-0.23039 0.0463551 0)
(-0.237508 0.0290212 0)
(-0.240279 0.00779502 0)
(-0.237796 -0.0161834 0)
(-0.22901 -0.0409988 0)
(-0.213209 -0.0633798 0)
(0.158787 -0.695448 0)
(0.152258 -0.59854 0)
(0.137404 -0.493678 0)
(0.11638 -0.39169 0)
(0.0916258 -0.299493 0)
(0.0651711 -0.220289 0)
(0.0384819 -0.154781 0)
(0.0125554 -0.102235 0)
(-0.0119587 -0.0611591 0)
(-0.0347256 -0.0295763 0)
(-0.0557203 -0.00539861 0)
(-0.0751265 0.0131956 0)
(-0.0932235 0.0274805 0)
(-0.11022 0.038322 0)
(-0.12616 0.0460709 0)
(-0.140931 0.0508138 0)
(-0.154445 0.052428 0)
(-0.166511 0.050666 0)
(-0.176753 0.0452784 0)
(-0.184577 0.0361194 0)
(-0.189286 0.0236499 0)
(-0.190112 0.00872173 0)
(-0.186444 -0.00772117 0)
(-0.177847 -0.0245497 0)
(-0.164508 -0.0402717 0)
(0.183286 -0.69684 0)
(0.179356 -0.611334 0)
(0.166945 -0.516208 0)
(0.147867 -0.421025 0)
(0.12446 -0.332696 0)
(0.0988234 -0.254994 0)
(0.0725699 -0.189285 0)
(0.0468356 -0.135393 0)
(0.0223739 -0.0922501 0)
(-0.000387924 -0.0583073 0)
(-0.0213083 -0.0318172 0)
(-0.0404611 -0.0111293 0)
(-0.0580192 0.00505971 0)
(-0.0741352 0.0176513 0)
(-0.0888505 0.0271376 0)
(-0.102089 0.0336762 0)
(-0.11365 0.0372492 0)
(-0.123346 0.0378629 0)
(-0.131081 0.0353059 0)
(-0.136604 0.0295159 0)
(-0.13948 0.0210411 0)
(-0.13938 0.0106633 0)
(-0.13606 -0.000860164 0)
(-0.129505 -0.0128 0)
(-0.120025 -0.0244202 0)
(0.210317 -0.694488 0)
(0.209719 -0.620305 0)
(0.200572 -0.535363 0)
(0.184269 -0.447755 0)
(0.162955 -0.364106 0)
(0.138753 -0.28859 0)
(0.113399 -0.223172 0)
(0.0881748 -0.168256 0)
(0.0639578 -0.123253 0)
(0.041273 -0.087008 0)
(0.0203602 -0.0581067 0)
(0.00125065 -0.0351258 0)
(-0.0161519 -0.0168141 0)
(-0.031964 -0.00219824 0)
(-0.046214 0.00935955 0)
(-0.0588171 0.0181476 0)
(-0.0696386 0.0241413 0)
(-0.078514 0.0272471 0)
(-0.0853879 0.0274071 0)
(-0.0902105 0.0246275 0)
(-0.0927861 0.0193627 0)
(-0.0929676 0.0123685 0)
(-0.0907124 0.0042752 0)
(-0.0860912 -0.0044019 0)
(-0.0793405 -0.0131795 0)
(0.239239 -0.687527 0)
(0.242661 -0.624387 0)
(0.237648 -0.549963 0)
(0.225083 -0.470725 0)
(0.206796 -0.392711 0)
(0.184841 -0.320263 0)
(0.161035 -0.255852 0)
(0.136798 -0.200436 0)
(0.113145 -0.153937 0)
(0.090728 -0.11563 0)
(0.069891 -0.0844348 0)
(0.0507475 -0.0591569 0)
(0.0332639 -0.0386537 0)
(0.0173627 -0.0219317 0)
(0.00304701 -0.00823041 0)
(-0.00956395 0.00284092 0)
(-0.0204187 0.0112953 0)
(-0.0294616 0.0169926 0)
(-0.0366702 0.0197378 0)
(-0.0419641 0.019598 0)
(-0.0452178 0.0171467 0)