/*--------------------------------*- C++ -*----------------------------------*\
| =========                 |                                                 |
| \\      /  F ield         | OpenFOAM: The Open Source CFD Toolbox           |
|  \\    /   O peration     | Version:  v2012                                 |
|   \\  /    A nd           | Website:  www.openfoam.com                      |
|    \\/     M anipulation  |                                                 |
\*---------------------------------------------------------------------------*/
FoamFile
{
    version     2.0;
    format      ascii;
    class       volScalarField;
    location    "504";
    object      age;
}
// * * * * * * * * * * * * * * * * * * * * * * * * * * * * * * * * * * * * * //

dimensions      [0 0 1 0 0 0 0];


internalField   nonuniform List<scalar> 
6556
(
0.0125016
0.0124997
0.0124998
0.0124998
0.0124999
0.0124999
0.0124998
0.0124998
0.0124997
0.0125016
0.0375085
0.0374977
0.0374977
0.037498
0.0374982
0.0374982
0.037498
0.0374977
0.0374977
0.0375085
0.0625252
0.0624948
0.0624931
0.0624934
0.0624937
0.0624937
0.0624934
0.0624931
0.0624948
0.0625252
0.0875521
0.0874919
0.0874857
0.0874852
0.0874854
0.0874854
0.0874851
0.0874857
0.0874919
0.087552
0.112589
0.112489
0.112476
0.112473
0.112473
0.112473
0.112473
0.112476
0.112489
0.112589
0.137636
0.137487
0.137463
0.137458
0.137456
0.137456
0.137458
0.137463
0.137487
0.137635
0.162691
0.162486
0.162449
0.162439
0.162436
0.162436
0.162439
0.162449
0.162486
0.162691
0.187756
0.187486
0.187433
0.187416
0.187411
0.187411
0.187416
0.187432
0.187485
0.187755
0.212828
0.212486
0.212414
0.212391
0.212383
0.212383
0.212391
0.212414
0.212485
0.212828
0.237908
0.237486
0.237394
0.237363
0.237352
0.237352
0.237362
0.237393
0.237485
0.237908
0.262996
0.262487
0.262372
0.262332
0.262317
0.262317
0.262331
0.262371
0.262486
0.262995
0.288092
0.287489
0.287349
0.287298
0.287279
0.287279
0.287297
0.287347
0.287487
0.288089
0.313194
0.312491
0.312324
0.312262
0.312239
0.312238
0.31226
0.312321
0.312488
0.313191
0.338303
0.337494
0.337297
0.337223
0.337195
0.337194
0.337221
0.337294
0.337489
0.338297
0.36342
0.362497
0.36227
0.362183
0.362149
0.362148
0.362179
0.362264
0.36249
0.363415
0.388544
0.387502
0.387241
0.38714
0.3871
0.387098
0.387134
0.387233
0.387491
0.388517
0.413676
0.412508
0.412212
0.412095
0.412048
0.412045
0.412086
0.412198
0.412492
0.413718
0.438816
0.437516
0.437182
0.437049
0.436994
0.436989
0.437034
0.437161
0.43749
0.438528
0.463966
0.462527
0.462152
0.462001
0.461937
0.461929
0.461978
0.462119
0.46249
0.465032
0.489127
0.487542
0.487124
0.486953
0.486878
0.486864
0.486914
0.487068
0.487474
0.484393
0.514301
0.512564
0.5121
0.511906
0.511817
0.511795
0.511842
0.512003
0.512449
0.534146
0.539494
0.537595
0.537082
0.536863
0.536758
0.536725
0.536766
0.536934
0.537431
0.568008
0.564708
0.562642
0.562075
0.561829
0.561705
0.561658
0.561694
0.561876
0.562421
0.601241
0.58995
0.587709
0.587085
0.586809
0.586663
0.586602
0.586633
0.586845
0.587437
0.633849
0.615229
0.612803
0.612118
0.611809
0.611641
0.611564
0.611595
0.611857
0.612503
0.665842
0.640552
0.637934
0.637182
0.63684
0.636647
0.636555
0.636592
0.636929
0.637632
0.697063
0.665932
0.663113
0.662288
0.661909
0.66169
0.661584
0.661636
0.662077
0.662844
0.727443
0.69138
0.68835
0.687448
0.68703
0.686784
0.686665
0.686741
0.687317
0.688148
0.756822
0.716912
0.713661
0.712674
0.712214
0.71194
0.711812
0.711921
0.712666
0.713546
0.785009
0.742545
0.739064
0.737983
0.737479
0.737176
0.73704
0.737194
0.738145
0.739051
0.811935
0.768301
0.764578
0.763394
0.762843
0.76251
0.76237
0.76258
0.763774
0.764682
0.837613
0.794205
0.790227
0.78893
0.788328
0.787964
0.787823
0.7881
0.78957
0.790464
0.862075
0.820284
0.81604
0.814616
0.81396
0.813564
0.813424
0.813776
0.815553
0.816419
0.885424
0.846575
0.842051
0.840484
0.839768
0.839338
0.8392
0.839631
0.841739
0.842574
0.907797
0.873116
0.868297
0.866571
0.865788
0.865321
0.865184
0.865693
0.868142
0.868952
0.929354
0.899958
0.894828
0.892919
0.892061
0.891553
0.891413
0.891992
0.89478
0.895578
0.95029
0.927157
0.921698
0.919581
0.918638
0.918083
0.917933
0.918565
0.921669
0.922486
0.970863
0.954784
0.948975
0.94662
0.945577
0.944968
0.944799
0.945457
0.948834
0.949719
0.991394
0.98292
0.976739
0.974111
0.972951
0.972278
0.972076
0.972727
0.976311
0.97733
1.01224
1.01167
1.00509
1.00214
1.00084
1.0001
0.999846
1.00045
1.00415
1.00539
1.03377
1.04115
1.03414
1.03083
1.02936
1.02853
1.02821
1.02872
1.03242
1.03395
1.05633
1.07151
1.06403
1.0603
1.05863
1.05769
1.05729
1.05766
1.06123
1.06317
1.07886
1.10293
1.09493
1.09072
1.0888
1.08773
1.08723
1.08742
1.09071
1.09323
1.10166
1.13565
1.12706
1.12229
1.12005
1.11882
1.1182
1.11819
1.12104
1.12434
1.12489
1.16994
1.16067
1.15524
1.15262
1.15118
1.15043
1.1502
1.15244
1.15681
1.14822
1.20616
1.19608
1.18988
1.18677
1.18508
1.18415
1.18373
1.18516
1.19098
1.1742
1.2448
1.23373
1.22659
1.22286
1.22082
1.21968
1.21908
1.21961
1.22619
1.2122
1.2865
1.27418
1.26587
1.26134
1.25883
1.2574
1.25663
1.25631
1.26234
1.25559
1.33216
1.31817
1.30837
1.30279
1.29962
1.29777
1.29681
1.29588
1.30016
1.29993
1.38315
1.36682
1.355
1.34798
1.34387
1.34142
1.34013
1.33889
1.34102
1.34396
1.44156
1.42178
1.40705
1.39799
1.39253
1.38917
1.38733
1.38592
1.38629
1.38926
1.51117
1.48581
1.46656
1.45441
1.4469
1.44218
1.43942
1.4377
1.43701
1.4386
1.59876
1.56343
1.53669
1.51966
1.50893
1.50207
1.49782
1.49533
1.494
1.49426
1.72424
1.66589
1.6234
1.59754
1.5817
1.57159
1.56507
1.56107
1.55883
1.55808
1.92449
1.8157
1.74094
1.69576
1.6691
1.65298
1.64299
1.63686
1.63338
1.63183
2.55029
2.09767
1.91412
1.83655
1.78994
1.76124
1.74281
1.73092
1.7236
1.71963
12.0413
6.29441
3.02744
2.083
1.93126
1.8851
1.86235
1.84868
1.83958
1.83366
12.3299
11.4793
7.39841
4.1063
2.59768
2.13668
2.02769
1.98924
1.97068
1.96221
11.3812
11.6908
10.807
7.82013
5.22925
3.65173
2.85342
2.46386
2.313
2.24651
10.9072
9.95847
9.51244
8.52379
7.13772
6.04356
5.27611
4.68921
4.25944
3.96052
134.459
157.883
157.814
158.188
158.823
159.831
161.368
163.544
166.958
170.53
174.457
178.618
182.291
185.151
187.125
188.248
188.493
188.65
188.803
188.96
189.126
189.311
189.539
189.861
191.797
132.64
156.086
154.427
154.449
154.521
154.995
156.528
160.175
168.794
180.064
192.926
206.506
219.729
231.554
241.047
247.455
250.387
248.677
242.196
231.702
218.858
206.189
196.53
191.554
191.446
126.717
155.247
154.132
153.966
153.87
153.969
154.653
157.267
168.356
186.957
209.885
235.626
262.469
288.04
309.662
324.912
331.984
330.085
319.079
299.445
272.787
242.757
215.618
197.599
191.784
119.903
155.081
154.366
154.106
153.733
153.643
153.872
155.074
165.547
189.49
222.052
260.979
304.304
347.809
385.864
413.28
426.4
423.654
405.539
374.155
332.618
285.303
239.891
206.603
192.687
112.521
155.368
155.37
155.119
154.114
153.546
153.481
153.85
161.322
187.253
227.385
278.642
339.298
402.895
459.662
501.043
521.353
518.011
491.895
447.066
389.504
325.557
263.588
215.93
193.768
104.167
155.87
157.35
157.575
155.723
153.916
153.347
153.453
157.159
180.659
224.776
285.232
360.875
443.373
518.238
573.536
601.67
598.749
566.012
509.202
437.089
358.647
283.133
223.788
194.703
95.3828
155.481
160.03
161.592
159.095
155.48
153.44
153.121
154.16
171.353
214.894
279.659
364.926
461.649
551.432
619.034
655.318
654.619
617.856
552.897
470.511
381.74
296.815
229.398
195.382
86.3817
153.856
162.818
166.731
164.333
158.88
154.422
153.047
152.97
162.34
199.712
262.811
350.837
454.556
554.22
631.007
674.241
676.316
641.858
573.719
487.015
393.553
304.076
232.535
195.788
77.2114
150.861
165.059
172.153
170.957
164.219
156.998
153.306
152.754
155.841
182.431
237.852
320.812
424.253
527.559
609.086
656.782
665.59
635.201
570.596
486.338
394.149
305.088
233.262
195.986
67.9884
146.267
166.566
177.102
178.289
171.357
161.776
154.739
152.7
152.59
166.77
209.613
280.502
375.676
476.581
559.609
610.787
625.246
601.394
546.139
470.172
384.573
300.468
231.78
196.176
58.89
140.03
167.534
181.059
185.587
179.768
168.826
158.408
153.112
152.415
156.702
183.258
236.993
316.802
409.047
490.138
542.408
561.765
548.203
505.287
441.553
366.629
291.172
228.495
196.366
50.0681
131.628
167.371
183.738
192.303
188.873
177.979
165.2
155.656
152.438
152.29
163.555
197.572
256.653
333.844
409.942
463.763
487.632
483.504
453.707
404.127
342.502
278.357
223.956
196.559
41.6702
121.632
165.536
185.288
197.948
198.171
188.801
174.946
161.826
153.974
152.129
154.009
168.592
204.5
260.547
325.706
380.218
409.769
414.004
396.764
361.675
314.655
263.585
219.11
196.763
33.8166
110.38
161.702
185.784
202.672
207.191
200.917
187.898
172.742
159.919
153.234
152.038
154.582
168.436
200.21
246.861
296.117
331.588
345.05
338.955
317.667
285.298
248.007
214.357
196.972
26.6086
98.1994
155.662
185.01
205.491
215.494
213.499
203.171
188.247
172.534
159.729
153.226
151.956
153.489
162.817
186.004
220.345
254.596
277.934
283.561
274.841
256.711
233.608
211.751
198.253
20.0768
85.048
147.211
182.687
206.8
222.429
225.782
219.702
207.313
191.598
175.452
161.875
154.034
151.5
151.478
155.114
167.397
188.366
211.971
229.664
236.418
232.985
225.01
214.641
203.239
14.5704
71.0313
136.083
178.278
206.227
227.425
236.811
236.048
227.999
215.058
199.379
182.984
168.075
157.352
151.414
149.487
149.427
152.078
159.645
170.022
179.674
184.757
181.561
170.951
156.874
10.3042
56.707
122.063
171.008
203.445
229.539
245.411
250.764
248.109
239.725
227.417
212.687
196.869
181.299
167.486
157.224
150.409
146.478
144.915
144.807
144.746
144.678
144.546
143.19
141.478
7.15
42.8079
105.202
159.959
197.816
228.008
250.463
262.395
265.865
262.901
255.251
244.289
231.164
216.868
202.313
188.383
175.935
165.609
157.843
152.925
150.088
148.752
148.675
150.192
155.236
4.90795
30.1313
85.9786
144.251
188.241
222.368
250.402
269.407
279.618
282.771
280.483
274.142
264.826
253.513
241.065
228.25
215.76
204.229
194.248
186.363
181.032
178.546
179.19
183.543
191.899
3.38506
19.4074
65.6614
123.627
173.299
211.926
244.15
269.692
287.069
297.042
300.88
299.838
295.153
287.724
278.431
268.164
257.644
247.61
238.633
231.195
225.787
222.892
222.902
226.191
232.673
2.40801
11.2145
45.1934
98.5287
151.719
195.426
231.312
261.531
285.463
302.588
313.207
318.246
318.747
315.725
310.002
302.631
294.091
285.287
277.147
270.461
265.554
262.55
261.654
263.067
266.829
1.81352
6.26178
27.3273
70.9929
123.22
171.141
211.119
244.741
273.11
296.104
313.402
325.946
333.227
333.809
332.485
328.788
323.531
316.857
308.984
301.373
295.561
291.808
290.058
290.096
291.711
1.48034
3.63681
14.255
44.8715
90.0569
138.372
181.973
219.021
250.418
277.011
298.906
316.631
329.306
336.805
341.102
339.048
336.937
335.045
332.319
326.981
320.178
313.98
309.059
306.086
305.518
1.31676
2.32088
6.50276
23.4463
56.6952
99.3895
143.211
183.012
217.312
246.477
271.077
291.69
308.327
320.871
329.946
334.691
335.952
336.554
336.344
334.681
332.248
329.978
328.408
327.45
326.569
1.25114
1.67174
3.21958
9.98021
29.3253
60.5094
98.3398
137.051
172.859
204.255
231.076
253.694
272.532
287.845
299.712
308.636
314.414
317.4
318.365
317.881
316.474
314.63
312.745
311.127
310.041
1.24113
1.38724
1.97646
3.77963
11.5476
29.2383
55.602
87.077
119.766
150.813
178.695
202.885
223.417
240.538
254.381
265.189
273.206
278.711
282.109
283.859
284.4
284.123
283.35
282.349
281.346
1.2578
1.30471
1.477
1.95023
3.69178
10.2465
23.8756
43.7786
67.7567
93.3049
118.363
141.581
162.257
180.144
195.175
207.398
217.018
224.313
229.594
233.191
235.432
236.625
237.051
236.948
236.5
1.29556
1.30557
1.3361
1.45352
1.59765
2.53442
6.3839
14.7796
27.8341
44.0827
61.9565
80.0855
97.4472
113.379
127.48
139.546
149.562
157.636
163.949
168.717
172.17
174.535
176.026
176.836
177.135
1.34232
1.34154
1.34416
1.36305
1.40982
1.53106
1.64608
2.72783
6.0402
12.0464
20.895
31.4018
42.5851
53.7155
64.2483
73.8066
82.1855
89.3147
95.2153
99.9649
103.676
106.481
108.515
109.909
110.778
1.39113
1.39131
1.38775
1.38416
1.39219
1.42189
1.46534
1.55131
1.63992
1.71491
2.83974
5.16217
8.60028
12.9496
17.9346
23.2589
28.3628
33.0068
37.0838
40.5553
43.4287
45.742
47.5484
48.9106
49.8867
1.44149
1.44428
1.4449
1.44215
1.43923
1.44083
1.45073
1.47507
1.51166
1.55007
1.6118
1.66208
1.71199
1.76239
1.88581
2.34475
3.04364
3.88652
4.78959
5.68484
6.52298
7.27222
7.91453
8.44341
8.86182
1.49634
1.49975
1.50352
1.50608
1.5069
1.50557
1.50613
1.5088
1.52156
1.53574
1.55852
1.58642
1.61651
1.64636
1.68198
1.7211
1.75408
1.78528
1.8161
1.84664
1.8769
1.90689
1.93659
1.966
1.99516
1.55895
1.56145
1.56549
1.57042
1.5755
1.57955
1.58298
1.58599
1.58893
1.59509
1.60391
1.6153
1.63302
1.65006
1.6688
1.69075
1.71461
1.73908
1.76381
1.78868
1.81362
1.8386
1.8636
1.8886
1.91361
1.63187
1.63341
1.6365
1.64112
1.64706
1.65385
1.66099
1.66832
1.67526
1.68256
1.69053
1.69949
1.70942
1.72122
1.7346
1.74933
1.76546
1.78283
1.80128
1.82052
1.84083
1.86224
1.88388
1.90522
1.92653
1.71816
1.71862
1.72072
1.72437
1.72953
1.73611
1.74391
1.75274
1.76235
1.77253
1.78323
1.79451
1.80627
1.8187
1.83193
1.84595
1.86077
1.87638
1.89275
1.90983
1.92755
1.94584
1.96466
1.98396
2.0037
1.83035
1.82919
1.82984
1.83213
1.83595
1.84123
1.84789
1.85584
1.865
1.87523
1.88641
1.89845
1.91125
1.92475
1.9389
1.95368
1.96905
1.98498
2.00145
2.01842
2.03586
2.05372
2.07197
2.09057
2.1095
1.95918
1.95922
1.96122
1.9647
1.96944
1.97533
1.9823
1.99032
1.99934
2.00935
2.02028
2.03209
2.04472
2.0581
2.07219
2.08692
2.10224
2.1181
2.13445
2.15126
2.16847
2.18606
2.20398
2.22219
2.24067
2.21275
2.19408
2.18376
2.17886
2.17774
2.17942
2.1833
2.18898
2.19617
2.20469
2.21438
2.22512
2.23681
2.24938
2.26273
2.2768
2.29152
2.30684
2.32269
2.33902
2.35578
2.37293
2.39042
2.40821
2.42635
3.76344
3.63208
3.53931
3.47092
3.41919
3.37969
3.34958
3.32693
3.31033
3.29874
3.29136
3.28756
3.28684
3.28875
3.29294
3.29913
3.30708
3.31659
3.32747
3.33955
3.35268
3.36674
3.38161
3.39718
3.41348
197.486
197.771
136.263
178.681
152.172
134.307
143.435
136.588
140.969
141.442
148.723
163.429
164.423
179.488
196.457
203.106
216.56
231.26
241.264
251.082
262.159
272.272
278.862
286.678
294.747
298.86
304.059
306.809
309.13
312.459
324.522
322.074
320.412
309.616
309.874
310.605
280.542
280.028
279.805
235.922
235.346
234.811
177.104
176.866
176.499
111.232
111.399
111.384
50.5233
50.9027
51.1154
9.15505
9.3622
9.50835
2.02058
2.04571
2.07069
1.93707
1.95898
1.98088
1.94695
1.96647
1.98579
2.02254
2.0404
2.05847
2.12752
2.14457
2.16178
2.25822
2.27479
2.29151
2.44312
2.45928
2.47555
3.42819
3.44315
3.45833
157.127
136.578
128.29
127.502
127.143
126.956
126.809
126.68
126.564
126.46
126.364
126.275
126.191
126.112
126.037
125.965
125.896
125.829
125.764
125.701
125.639
125.579
125.52
125.462
125.405
125.349
125.294
125.239
125.185
125.132
125.079
125.027
124.974
124.923
124.871
124.82
124.769
124.718
124.667
124.616
124.564
124.502
124.43
124.347
124.252
124.145
124.026
123.893
123.747
123.587
123.415
123.231
123.038
122.837
122.634
122.435
122.248
122.086
121.965
121.876
121.776
121.661
121.523
121.383
121.354
121.455
121.761
122.49
123.316
124.356
125.529
126.963
128.199
128.923
129.123
129.277
129.431
129.599
129.793
130.715
139.604
130.828
128.008
127.673
127.641
127.872
128.323
129.01
129.916
131.005
132.208
133.47
134.763
136.062
137.351
138.617
139.85
141.045
142.196
143.303
144.362
145.373
146.337
147.252
148.119
148.938
149.71
150.433
151.108
151.735
152.312
152.838
153.312
153.732
154.096
154.4
154.641
154.817
154.921
154.951
154.903
154.778
154.559
154.241
153.815
153.274
152.608
151.81
150.87
149.778
148.525
147.103
145.504
143.724
141.759
139.612
137.296
134.837
132.315
129.827
127.427
125.221
123.326
121.801
120.868
120.581
120.39
121.01
122.831
125.916
130.291
135.534
140.675
144.598
146.115
144.315
139.89
134.892
131.48
130.83
133.651
128.766
128.137
128.403
129.464
131.321
133.958
137.226
140.917
144.834
148.83
152.839
156.795
160.65
164.375
167.952
171.369
174.624
177.716
180.648
183.425
186.053
188.535
190.88
193.09
195.172
197.129
198.965
200.682
202.281
203.764
205.129
206.375
207.5
208.5
209.37
210.104
210.695
211.135
211.412
211.519
211.444
211.18
210.706
210.006
209.062
207.853
206.358
204.553
202.416
199.92
197.041
193.754
190.036
185.868
181.236
176.134
170.571
164.577
158.208
151.563
144.792
138.117
131.855
126.463
122.719
120.541
120.009
121.216
125.077
131.976
141.548
152.179
161.446
167.367
165.845
157.293
145.165
135.217
131.299
131.51
128.641
128.759
130.408
133.551
138.171
143.99
150.611
157.67
164.899
172.113
179.187
186.032
192.595
198.849
204.783
210.396
215.697
220.696
225.407
229.847
234.031
237.972
241.684
245.18
248.471
251.566
254.472
257.197
259.743
262.115
264.312
266.334
268.18
269.843
271.32
272.6
273.675
274.533
275.16
275.539
275.655
275.488
275.017
274.215
273.055
271.505
269.532
267.1
264.17
260.7
256.647
251.965
246.61
240.537
233.709
226.093
217.675
208.458
198.481
187.83
176.655
165.195
153.797
142.942
133.279
125.685
121.258
119.804
121.954
128.703
140.251
155.186
170.528
182.664
181.199
170.966
154.307
138.933
131.836
130.79
128.786
130.085
133.715
139.657
147.609
156.966
167.128
177.633
188.154
198.469
208.43
217.955
227
235.553
243.617
251.209
258.35
265.066
271.383
277.327
282.923
288.194
293.161
297.843
302.256
306.414
310.328
314.009
317.462
320.692
323.702
326.49
329.056
331.394
333.496
335.354
336.954
338.282
339.322
340.052
340.45
340.492
340.152
339.4
338.202
336.518
334.307
331.522
328.114
324.028
319.206
313.587
307.106
299.696
291.291
281.83
271.259
259.542
246.67
232.681
217.677
201.855
185.54
169.221
153.599
139.635
128.562
121.884
119.661
122.892
132.677
148.467
167.023
182.756
189.729
177.877
159.345
141.297
132.236
130.481
129.16
132.016
138.085
147.214
158.689
171.598
185.196
198.946
212.486
225.585
238.11
249.994
261.217
271.785
281.719
291.051
299.817
308.055
315.801
323.091
329.958
336.432
342.541
348.309
353.757
358.902
363.76
368.343
372.659
376.714
380.512
384.053
387.334
390.349
393.09
395.546
397.702
399.539
401.038
402.174
402.92
403.245
403.117
402.502
401.361
399.652
397.328
394.336
390.623
386.129
380.792
374.543
367.31
359.016
349.579
338.915
326.943
313.587
298.783
282.502
264.763
245.664
225.429
204.458
183.397
163.205
145.181
130.933
122.297
119.505
123.672
135.846
153.883
171.796
181.235
176.804
160.007
142.085
132.463
130.379
129.828
134.413
143.221
155.693
170.662
186.964
203.742
220.417
236.626
252.157
266.906
280.835
293.946
306.266
317.834
328.697
338.905
348.506
357.548
366.074
374.126
381.741
388.95
395.784
402.268
408.421
414.261
419.802
425.054
430.022
434.709
439.114
443.232
447.054
450.568
453.757
456.603
459.08
461.162
462.817
464.009
464.701
464.85
464.413
463.349
461.609
459.143
455.898
451.821
446.857
440.948
434.035
426.054
416.937
406.61
394.993
381.996
367.528
351.494
333.807
314.405
293.278
270.504
246.312
221.158
195.824
171.496
149.793
132.719
122.449
119.281
124.069
137.418
155.079
168.442
169.31
157.156
141.635
132.659
130.417
130.626
137.17
148.889
164.713
183.031
202.473
222.109
241.357
259.879
277.504
294.164
309.852
324.596
338.445
351.458
363.698
375.228
386.11
396.401
406.154
415.417
424.232
432.638
440.666
448.343
455.692
462.729
469.468
475.916
482.076
487.949
493.526
498.798
503.749
508.357
512.599
516.442
519.85
522.783
525.194
527.035
528.252
528.788
528.587
527.589
525.742
522.99
519.28
514.565
508.798
501.942
493.958
484.813
474.472
462.896
450.04
435.844
420.235
403.12
384.394
363.945
341.676
317.535
291.565
263.978
235.25
206.255
178.339
153.419
133.901
122.306
118.927
123.914
137.268
152.251
158.564
152.385
140.466
132.853
130.55
131.501
140.241
154.96
174.059
195.511
217.791
239.941
261.407
281.901
301.303
319.587
336.781
352.943
368.147
382.474
396.006
408.821
420.995
432.595
443.683
454.312
464.53
474.376
483.883
493.08
501.985
510.615
518.978
527.076
534.908
542.463
549.728
556.68
563.291
569.526
575.342
580.691
585.516
589.751
593.328
596.17
598.197
599.329
599.482
598.575
596.539
593.306
588.823
583.045
575.947
567.516
557.752
546.673
534.302
520.665
505.787
489.677
472.321
453.676
433.658
412.151
389.01
364.091
337.288
308.595
278.191
246.549
214.548
183.664
156.066
134.496
121.874
118.353
123.38
136.254
147.647
147.077
139.157
133.057
130.694
132.445
143.638
161.414
183.666
207.995
232.78
257.084
280.413
302.549
323.428
343.071
361.547
378.948
395.378
410.943
425.746
439.882
453.438
466.494
479.117
491.365
503.288
514.926
526.313
537.472
548.42
559.168
569.718
580.064
590.195
600.089
609.719
619.046
628.025
636.598
644.699
652.251
659.165
665.341
670.671
675.036
678.315
680.384
681.122
680.414
678.154
674.259
668.667
661.342
652.277
641.499
629.064
615.056
599.584
582.769
564.737
545.604
525.457
504.342
482.251
459.105
434.763
409.032
381.702
352.597
321.647
288.984
255.038
220.707
187.522
157.805
134.589
121.161
117.537
122.717
135.256
142.957
137.817
133.274
130.822
133.619
147.486
168.368
193.611
220.515
247.439
273.517
298.348
321.792
343.852
364.602
384.156
402.644
420.203
436.964
453.051
468.577
483.641
498.33
512.717
526.864
540.823
554.633
568.326
581.921
595.432
608.862
622.205
635.447
648.562
661.518
674.268
686.754
698.907
710.643
721.861
732.448
742.27
751.179
759.008
765.578
770.704
774.199
775.882
775.585
773.158
768.481
761.478
752.122
740.436
726.497
710.433
692.425
672.688
651.468
629.02
605.593
581.406
556.629
531.361
505.612
479.291
452.209
424.099
394.662
363.638
330.893
296.505
260.876
224.871
190.041
158.759
134.277
120.211
116.508
122.171
134.621
137.367
133.511
130.933
135.114
151.998
176.077
204.108
233.222
261.867
289.305
315.25
339.657
362.598
384.205
404.638
424.066
442.657
460.568
477.943
494.907
511.572
528.029
544.36
560.627
576.884
593.17
609.514
625.936
642.442
659.032
675.691
692.396
709.11
725.785
742.357
758.746
774.856
790.57
805.751
820.238
833.845
846.356
857.529
867.102
874.798
880.339
883.458
883.91
881.484
875.999
867.362
855.552
840.635
822.765
802.17
779.152
754.067
727.309
699.287
670.4
641.014
611.434
581.883
552.481
523.224
493.976
464.47
434.345
403.198
370.685
336.613
301.034
264.329
227.325
191.482
159.183
133.737
119.049
115.23
122.415
135.229
133.721
131.03
137.397
157.75
185.038
215.54
246.382
276.237
304.557
331.19
356.188
379.693
401.893
422.991
443.192
462.689
481.66
500.263
518.635
536.896
555.143
573.461
591.918
610.566
629.449
648.594
668.021
687.734
707.73
727.99
748.483
769.165
789.976
810.836
831.646
852.283
872.601
892.422
911.537
929.701
946.624
961.967
975.358
986.396
994.681
999.82
1001.46
999.299
993.08
982.693
968.145
949.544
927.151
901.333
872.549
841.326
808.229
773.835
738.702
703.34
668.185
633.577
599.736
566.751
534.563
502.959
471.582
439.962
407.6
374.074
339.165
302.936
265.778
228.466
192.347
159.585
133.417
117.766
113.407
121.586
134.122
131.228
140.6
165.342
195.887
228.375
260.301
290.736
319.378
346.221
371.403
395.131
417.636
439.155
459.916
480.131
499.989
519.657
539.28
558.981
578.862
599.012
619.5
640.384
661.707
683.501
705.785
728.567
751.842
775.592
799.784
824.371
849.287
874.445
899.735
925.017
950.118
974.831
998.905
1022.04
1043.88
1063.97
1081.81
1096.84
1108.49
1116.2
1119.46
1117.84
1110.99
1098.78
1081.38
1059.03
1031.97
1000.76
966.027
928.501
888.931
848.058
806.588
765.158
724.318
684.501
646.01
609.003
573.492
539.33
506.216
473.699
441.223
408.214
374.211
339.004
302.714
265.789
228.989
193.473
161.068
134.477
117.2
111.092
111.548
132.708
148.233
177.058
209.825
243.176
275.231
305.468
333.799
360.328
385.261
408.844
431.333
452.983
474.032
494.694
515.164
535.608
556.172
576.98
598.135
619.726
641.825
664.492
687.771
711.697
736.292
761.566
787.516
814.126
841.366
869.191
897.536
926.314
955.412
984.683
1013.95
1042.98
1071.52
1099.23
1125.72
1150.45
1172.79
1191.93
1207.02
1217.32
1222.27
1221.48
1214.62
1201.16
1180.85
1155.36
1124.38
1088.57
1048.76
1005.83
960.737
914.356
867.504
820.913
775.208
730.894
688.331
647.734
609.159
572.52
537.576
503.944
471.108
438.468
405.425
371.533
336.645
300.986
265.118
229.844
196.196
165.553
139.759
120.934
110.521
139.749
163.601
194.588
227.512
260.084
291.088
320.277
347.656
373.357
397.606
420.663
442.79
464.239
485.239
505.999
526.702
547.509
568.559
589.969
611.842
634.261
657.299
681.012
705.446
730.636
756.603
783.356
810.895
839.203
868.251
897.995
928.374
959.303
990.672
1022.34
1054.14
1085.86
1117.27
1148.1
1177.97
1206.27
1231.85
1252.03
1266
1274.71
1278.97
1279.3
1275.77
1266.83
1247.26
1220.51
1187.58
1149.35
1106.75
1060.8
1012.53
962.961
912.959
863.303
814.654
767.552
722.402
679.458
638.823
600.456
564.178
529.677
496.521
464.174
432.045
399.587
366.436
332.564
298.33
264.438
231.824
201.584
174.951
153.212
137.502
158.036
186.245
216.769
247.929
278.305
307.24
334.638
360.51
384.947
408.128
430.297
451.71
472.597
493.17
513.615
534.097
554.763
575.737
597.126
619.021
641.501
664.629
688.458
713.027
738.366
764.491
791.408
819.106
847.563
876.749
906.616
937.103
968.127
999.578
1031.32
1063.18
1094.96
1126.44
1157.36
1187.36
1215.89
1242.27
1261.97
1274.19
1281.94
1285.73
1288.31
1287.51
1280.17
1262.93
1237.66
1205.78
1168.45
1126.62
1081.28
1033.49
984.241
934.435
884.842
836.123
788.826
743.378
700.07
659.048
620.324
583.783
549.189
516.197
484.371
453.206
422.188
390.883
359.084
326.914
294.851
263.646
234.203
207.482
184.465
166.067
185.87
213.302
241.214
269.261
296.546
322.75
347.82
371.746
394.563
416.366
437.339
457.705
477.677
497.434
517.132
536.91
556.886
577.167
597.847
619.003
640.701
662.992
685.919
709.512
733.79
758.761
784.42
810.747
837.71
865.268
893.37
921.951
950.925
980.18
1009.57
1038.94
1068.07
1096.73
1124.65
1151.5
1176.79
1200.14
1220.08
1235.25
1246.06
1252.22
1253.65
1249.55
1239.36
1222.94
1200.45
1172.32
1139.14
1101.68
1060.8
1017.39
972.318
926.398
880.346
834.79
790.263
747.194
705.897
666.557
629.239
593.896
560.371
528.413
497.685
467.792
438.312
408.852
379.153
349.197
319.27
289.936
261.949
236.132
213.244
193.885
217.736
241.459
265.575
289.801
313.563
336.682
359.088
380.741
401.633
421.792
441.311
460.354
479.086
497.649
516.172
534.766
553.521
572.521
591.84
611.54
631.671
652.27
673.366
694.978
717.114
739.771
762.933
786.573
810.65
835.116
859.913
884.974
910.211
935.511
960.737
985.731
1010.31
1034.25
1057.29
1079.15
1099.45
1117.8
1133.73
1146.66
1156.04
1161.4
1162.3
1158.51
1149.83
1136.22
1117.77
1094.75
1067.55
1036.69
1002.77
966.435
928.339
889.117
849.369
809.642
770.419
732.101
694.996
659.311
625.151
592.521
561.336
531.432
502.572
474.462
446.785
419.234
391.584
363.767
335.95
308.515
282.038
257.202
234.644
214.801
248.573
267.862
287.842
308.087
328.238
348.153
367.732
386.909
405.648
423.927
441.757
459.221
476.428
493.474
510.455
527.453
544.535
561.76
579.182
596.845
614.784
633.024
651.582
670.465
689.673
709.195
729.01
749.085
769.378
789.838
810.409
831.023
851.596
872.028
892.202
911.981
931.215
949.73
967.326
983.776
998.818
1012.16
1023.49
1032.5
1038.84
1042.19
1042.24
1038.85
1031.87
1021.28
1007.12
989.505
968.676
944.928
918.632
890.203
860.088
828.74
796.608
764.119
731.66
699.56
668.085
637.423
607.69
578.927
551.102
524.119
497.822
472.008
446.449
420.931
395.3
369.513
343.692
318.112
293.187
269.434
247.37
227.38
275.309
290.433
306.429
322.883
339.563
356.327
373.061
389.685
406.13
422.333
438.261
453.922
469.359
484.623
499.772
514.861
529.936
545.037
560.197
575.446
590.804
606.288
621.906
637.66
653.545
669.545
685.641
701.802
717.988
734.153
750.247
766.211
781.976
797.463
812.58
827.227
841.29
854.646
867.159
878.675
889.025
898.022
905.47
911.168
914.919
916.535
915.848
912.744
907.141
899.003
888.34
875.22
859.765
842.139
822.558
801.275
778.565
754.717
730.027
704.782
679.248
653.658
628.206
603.037
578.246
553.881
529.931
506.338
482.997
459.771
436.513
413.098
389.448
365.569
341.572
317.682
294.23
271.612
250.214
230.392
296.321
307.788
320.189
333.208
346.674
360.454
374.427
388.485
402.559
416.561
430.416
444.08
457.547
470.83
483.954
496.945
509.829
522.631
535.37
548.062
560.72
573.352
585.963
598.552
611.113
623.635
636.1
648.483
660.752
672.872
684.802
696.499
707.914
718.989
729.662
739.864
749.522
758.554
766.874
774.389
780.996
786.586
791.045
794.255
796.103
796.473
795.283
792.459
787.945
781.713
773.761
764.123
752.86
740.061
725.844
710.353
693.74
676.166
657.802
638.817
619.368
599.597
579.624
559.541
539.408
519.252
499.061
478.788
458.357
437.681
416.676
395.285
373.496
351.363
329.021
306.684
284.635
263.193
242.666
223.332
310.794
319.087
328.32
338.263
348.783
359.737
371.033
382.566
394.244
405.966
417.63
429.166
440.539
451.733
462.748
473.587
484.259
494.772
505.137
515.359
525.447
535.404
545.234
554.935
564.506
573.935
583.21
592.315
601.227
609.921
618.371
626.547
634.417
641.947
649.097
655.826
662.088
667.837
673.021
677.587
681.478
684.633
686.99
688.483
689.049
688.633
687.182
684.653
681.01
676.23
670.306
663.247
655.076
645.832
635.572
624.365
612.285
599.412
585.833
571.632
556.89
541.679
526.058
510.067
493.726
477.031
459.957
442.458
424.477
405.966
386.891
367.256
347.107
326.549
305.742
284.9
264.273
244.128
224.711
206.25
317.036
322.876
329.556
336.908
344.838
353.242
362.041
371.149
380.466
389.888
399.318
408.68
417.922
427.014
435.936
444.679
453.237
461.608
469.794
477.795
485.614
493.253
500.712
507.995
515.098
522.014
528.733
535.244
541.534
547.586
553.385
558.914
564.153
569.084
573.684
577.93
581.798
585.261
588.293
590.863
592.943
594.499
595.498
595.907
595.697
594.833
593.283
591.016
588.01
584.244
579.706
574.389
568.296
561.434
553.821
545.484
536.449
526.747
516.412
505.476
493.967
481.906
469.304
456.16
442.461
428.181
413.288
397.745
381.525
364.619
347.044
328.859
310.162
291.093
271.828
252.575
233.553
214.983
197.06
179.964
320.159
321.555
324.414
328.448
333.404
339.082
345.332
352.025
359.034
366.236
373.528
380.823
388.063
395.202
402.211
409.069
415.761
422.276
428.611
434.762
440.729
446.512
452.109
457.523
462.751
467.784
472.616
477.238
481.642
485.819
489.76
493.455
496.893
500.066
502.961
505.565
507.867
509.853
511.508
512.816