/*--------------------------------*- C++ -*----------------------------------*\
| =========                 |                                                 |
| \\      /  F ield         | OpenFOAM: The Open Source CFD Toolbox           |
|  \\    /   O peration     | Version:  v2012                                 |
|   \\  /    A nd           | Website:  www.openfoam.com                      |
|    \\/     M anipulation  |                                                 |
\*---------------------------------------------------------------------------*/
FoamFile
{
    version     2.0;
    format      ascii;
    class       volScalarField;
    location    "504";
    object      k;
}
// * * * * * * * * * * * * * * * * * * * * * * * * * * * * * * * * * * * * * //

dimensions      [0 2 -2 0 0 0 0];


internalField   nonuniform List<scalar> 
6556
(
2.16871
2.74551
2.85386
2.88314
2.89809
2.89809
2.88314
2.85386
2.74551
2.16871
1.18122
1.91314
2.11997
2.188
2.21033
2.21033
2.188
2.11997
1.91314
1.18122
0.739675
1.39278
1.62488
1.71467
1.74554
1.74554
1.71467
1.62488
1.39278
0.739675
0.510483
1.05676
1.28049
1.37792
1.41434
1.41434
1.37792
1.28049
1.05676
0.510483
0.377263
0.830244
1.03376
1.13024
1.16885
1.16885
1.13024
1.03376
0.830245
0.377263
0.292857
0.671082
0.851973
0.943104
0.981433
0.981434
0.943105
0.851974
0.671083
0.292857
0.235715
0.555069
0.714552
0.798463
0.835027
0.835027
0.798464
0.714554
0.55507
0.235715
0.194982
0.4678
0.60825
0.684471
0.718524
0.718524
0.684473
0.608252
0.467802
0.194983
0.164741
0.400371
0.52433
0.593103
0.624373
0.624373
0.593105
0.524333
0.400375
0.164742
0.141545
0.347075
0.456891
0.51878
0.54727
0.547271
0.518783
0.456895
0.34708
0.141546
0.123276
0.304128
0.401846
0.457531
0.483389
0.483391
0.457535
0.401851
0.304134
0.123278
0.108571
0.268944
0.356302
0.406473
0.429914
0.429916
0.406478
0.35631
0.268952
0.108573
0.0965186
0.239707
0.318167
0.363472
0.38473
0.384733
0.36348
0.318178
0.239719
0.0965224
0.0864891
0.215114
0.285899
0.326923
0.34623
0.346234
0.326933
0.285913
0.215129
0.0864943
0.0780339
0.194203
0.258338
0.2956
0.313172
0.313178
0.295614
0.258358
0.194224
0.0780409
0.0708259
0.176255
0.234601
0.268554
0.284588
0.284596
0.268574
0.234628
0.176284
0.0708353
0.0646214
0.160723
0.214005
0.245042
0.259713
0.259723
0.24507
0.214042
0.16076
0.0646337
0.059235
0.147179
0.196013
0.224473
0.237936
0.23795
0.224512
0.196061
0.147225
0.0592505
0.0545234
0.135291
0.180197
0.206376
0.218766
0.218786
0.20643
0.180263
0.135344
0.0545419
0.0503741
0.12479
0.166216
0.190368
0.201805
0.201834
0.190443
0.1663
0.124811
0.0503933
0.0466973
0.115463
0.15379
0.176137
0.186727
0.186767
0.176245
0.153921
0.11556
0.0470197
0.0434206
0.107133
0.142692
0.163427
0.17326
0.173316
0.163579
0.142892
0.107343
0.0451664
0.0404851
0.0996578
0.132733
0.152022
0.161181
0.161257
0.152231
0.133023
0.100102
0.0445334
0.0378421
0.0929173
0.123757
0.141748
0.150303
0.1504
0.142013
0.124114
0.0937826
0.0451253
0.0354515
0.0868126
0.115633
0.132453
0.140466
0.140582
0.132756
0.116054
0.0884046
0.0469785
0.0332796
0.0812605
0.108251
0.124013
0.131539
0.131675
0.124344
0.108833
0.0839699
0.0498893
0.031298
0.0761904
0.101518
0.116321
0.123409
0.123576
0.116751
0.102435
0.0803241
0.0535051
0.0294827
0.0715421
0.0953529
0.109287
0.115985
0.116197
0.10989
0.0967899
0.0774233
0.0574564
0.0278128
0.067264
0.0896883
0.102833
0.109184
0.109462
0.103688
0.0918226
0.0751649
0.0609716
0.0262707
0.0633118
0.0844652
0.0968927
0.102939
0.103302
0.0980755
0.0874572
0.0734108
0.063659
0.024841
0.0596466
0.0796324
0.0914081
0.0971882
0.0976594
0.0929918
0.0836176
0.0720268
0.0656211
0.0235102
0.0562345
0.0751456
0.0863292
0.0918802
0.0924792
0.0883781
0.0802211
0.0708154
0.0669366
0.0222663
0.0530461
0.0709658
0.0816119
0.0869681
0.0877133
0.0841791
0.0771837
0.0696866
0.0676815
0.021099
0.0500553
0.0670589
0.0772175
0.0824108
0.0833179
0.0803429
0.074436
0.0685712
0.0679194
0.0199989
0.0472392
0.0633945
0.0731118
0.0781715
0.0792533
0.0768224
0.0719168
0.0674153
0.0677003
0.0189577
0.0445772
0.0599457
0.0692644
0.0742175
0.0754834
0.0735748
0.069573
0.0661806
0.0670665
0.0179677
0.0420515
0.0566889
0.0656484
0.0705195
0.071976
0.0705619
0.0673613
0.0648438
0.0660594
0.0170223
0.039646
0.0536028
0.0622398
0.0670516
0.0687025
0.0677513
0.0652485
0.0633974
0.0647246
0.0161154
0.0373468
0.0506687
0.0590172
0.0637906
0.0656376
0.0651159
0.0632124
0.0618494
0.0631183
0.0152413
0.0351415
0.0478697
0.0559615
0.0607157
0.0627593
0.0626341
0.0612413
0.0602226
0.0613088
0.0143952
0.0330194
0.0451905
0.053055
0.0578077
0.0600479
0.0602892
0.0593326
0.0585514
0.0593759
0.0135725
0.0309716
0.0426171
0.0502806
0.0550485
0.0574855
0.0580678
0.0574901
0.0568774
0.0574061
0.0127693
0.0289899
0.0401355
0.0476214
0.0524193
0.0550538
0.0559576
0.0557195
0.0552426
0.0554852
0.0119819
0.0270671
0.0377322
0.045059
0.0498995
0.0527327
0.0539446
0.0540242
0.053682
0.0536876
0.0112071
0.0251965
0.0353924
0.0425731
0.0474652
0.0504978
0.0520093
0.0523988
0.0522153
0.052065
0.0104418
0.0233715
0.0331006
0.04014
0.0450875
0.0483182
0.0501236
0.0508253
0.0508403
0.0506362
0.00968316
0.0215856
0.0308393
0.0377321
0.0427314
0.0461548
0.0482486
0.0492688
0.0495284
0.0493806
0.00892803
0.0198324
0.0285897
0.0353176
0.040355
0.0439591
0.0463323
0.0476763
0.0482238
0.0482366
0.00817312
0.0181051
0.0263314
0.0328605
0.0379097
0.0416731
0.0443104
0.0459773
0.0468457
0.0471066
0.00741447
0.0163973
0.024044
0.0303225
0.0353416
0.0392314
0.0421081
0.0440876
0.0452947
0.0458668
0.00664691
0.0147022
0.0217075
0.0276658
0.0325962
0.0365658
0.039646
0.0419155
0.0434615
0.0443803
0.00586292
0.0130121
0.0193096
0.0248619
0.0296275
0.033615
0.0368495
0.039373
0.0412399
0.0425139
0.00505094
0.0113057
0.0168398
0.0219014
0.0264156
0.0303438
0.033668
0.0363938
0.0385455
0.0401573
0.00417767
0.00967894
0.0143607
0.0188269
0.0229897
0.0267678
0.0301013
0.0329602
0.0353371
0.0372416
0.00324946
0.00827237
0.0121209
0.0158665
0.0195321
0.023028
0.0262559
0.029145
0.0316583
0.0337744
0.00228318
0.007006
0.0102957
0.013356
0.0164203
0.0194746
0.0224287
0.0251943
0.0277018
0.0299047
0.00122696
0.00557811
0.00869674
0.0113729
0.0139545
0.0165379
0.0191007
0.0215764
0.023899
0.0260122
0.000895625
0.00381457
0.00694832
0.0096055
0.0120229
0.0143182
0.0165262
0.0186327
0.020614
0.022441
0.00084419
0.00220109
0.00512054
0.00770394
0.0101234
0.0122522
0.0141671
0.0158728
0.0174015
0.0187716
0.000950042
0.00169462
0.00262251
0.00391611
0.00538234
0.00649051
0.0073941
0.00818323
0.00885878
0.00942932
0.00983057
0.00340889
0.00350787
0.00372915
0.00391288
0.00402743
0.00406288
0.00401235
0.0038587
0.00367688
0.00346635
0.00322952
0.00297223
0.00270761
0.00244345
0.00218439
0.00192892
0.00170589
0.00150358
0.00131356
0.00113028
0.00094859
0.000762103
0.00056071
0.000309832
0.0189645
0.0084438
0.00747677
0.00763788
0.00790691
0.00809851
0.0081506
0.00803531
0.0077208
0.00727227
0.00676611
0.00623164
0.00569116
0.00516702
0.00467278
0.0042137
0.00378651
0.00335906
0.00293457
0.00251686
0.00211314
0.00173384
0.00139855
0.00109682
0.000573347
0.0281873
0.0138461
0.0106117
0.00997001
0.00989479
0.00986124
0.00972307
0.00943959
0.00897859
0.00835035
0.00767493
0.00699825
0.00634187
0.0057248
0.00516233
0.00466003
0.00421204
0.00379345
0.00338845
0.00298362
0.00256889
0.00214561
0.00173659
0.00135109
0.000686842
0.0382196
0.0207675
0.0143266
0.0123829
0.0116126
0.011118
0.0106228
0.0100527
0.00937681
0.00859383
0.00778298
0.00701819
0.00630487
0.00565631
0.00508578
0.00459522
0.00417493
0.00380122
0.00345155
0.00310398
0.00273629
0.00233461
0.00190611
0.00145986
0.000730763
0.0480859
0.0296821
0.0194164
0.0153697
0.0135473
0.0123788
0.0114002
0.0104607
0.00952215
0.00858803
0.00766853
0.00681612
0.00605164
0.00538328
0.00481788
0.00435129
0.00396846
0.00364404
0.00335072
0.00306204
0.00274993
0.00238997
0.0019729
0.00149361
0.000733223
0.0555521
0.0389086
0.0256722
0.0191012
0.0159251
0.0139048
0.0123181
0.0109423
0.00969782
0.0085667
0.00754036
0.00660548
0.00578326
0.00508534
0.00451581
0.00406508
0.00371322
0.00343168
0.00318716
0.00294914
0.00268643
0.00236883
0.00197539
0.00148432
0.000712466
0.0607929
0.0479238
0.0328377
0.0237227
0.0188699
0.015817
0.0135355
0.0116471
0.0100389
0.00866758
0.00749277
0.00648042
0.00560662
0.00485536
0.00426098
0.00380631
0.00346958
0.00321834
0.00301144
0.0028132
0.00258983
0.00230793
0.00193911
0.00144852
0.000678729
0.0647022
0.0552124
0.0399809
0.0291749
0.0225193
0.0182176
0.0150834
0.0126172
0.0106047
0.00895018
0.00758719
0.00646145
0.00552166
0.00473386
0.00409485
0.00360952
0.0032651
0.00302828
0.00284691
0.00267768
0.00248356
0.00222905
0.00188082
0.00139605
0.000636413
0.0676665
0.0611033
0.0467635
0.0350167
0.0267375
0.0211282
0.0170302
0.0138749
0.0113807
0.00940981
0.00783944
0.0065737
0.00554515
0.0046973
0.00400288
0.00347193
0.00310643
0.00286983
0.00270116
0.00255063
0.00237724
0.00214335
0.00181159
0.00133423
0.000590403
0.0698564
0.0656665
0.0530402
0.0408047
0.0312887
0.0244477
0.0193589
0.0154541
0.0124128
0.0100672
0.00824309
0.0068129
0.00567811
0.00475344
0.00398831
0.00339043
0.00297941
0.00272789
0.00256393
0.00242624
0.00226841
0.00205058
0.00173262
0.00126427
0.000549617
0.071403
0.0691182
0.0585405
0.0463329
0.0359827
0.0280489
0.0219954
0.0173413
0.0137409
0.0109673
0.00883797
0.00719538
0.00592566
0.00491293
0.00406732
0.0033803
0.00289089
0.00259652
0.00242722
0.00229796
0.00215334
0.0019498
0.00164484
0.00118658
0.000510818
0.0724279
0.0716587
0.0630917
0.0514337
0.0407351
0.0318031
0.0248552
0.0194904
0.0153444
0.0121318
0.00967778
0.00776583
0.00631898
0.00520392
0.00427705
0.00348308
0.00287439
0.00249298
0.00229159
0.00216114
0.00202742
0.00183896
0.00154955
0.00110504
0.000472549
0.0729701
0.0733806
0.0665838
0.0559494
0.0450584
0.03549
0.0278259
0.0218446
0.0172115
0.0136061
0.0107884
0.00859305
0.00691765
0.00566084
0.00465694
0.00375873
0.0029997
0.00246823
0.00217476
0.0020191
0.00188974
0.00171827
0.0014523
0.0010323
0.000435178
0.0730377
0.0743482
0.0691203
0.0596777
0.0489019
0.0390236
0.0308275
0.0243504
0.0193134
0.0153756
0.0122579
0.00976433
0.00781186
0.00634273
0.00522551
0.00426535
0.00336696
0.00263385
0.00214952
0.0019
0.00175412
0.00160076
0.00136988
0.000995669
0.000402838
0.0726322
0.0746052
0.0707511
0.0625405
0.052251
0.0423751
0.0337939
0.0269525
0.0216191
0.0174371
0.0140921
0.0113528
0.00912213
0.00736487
0.0060294
0.00498235
0.00403912
0.00315307
0.00243409
0.00194767
0.00169944
0.00154498
0.00136615
0.0010725
0.000514301
0.0717613
0.0741988
0.0715156
0.0645082
0.0550463
0.0452961
0.0366331
0.0295911
0.0240841
0.0197584
0.0162854
0.0133977
0.0109598
0.00891621
0.00724897
0.00593459
0.00488798
0.00397784
0.00316965
0.00249002
0.00197274
0.00167657
0.00148045
0.00125958
0.00105149
0.0704488
0.0731802
0.071509
0.0656883
0.0572504
0.047867
0.0393729
0.0322397
0.0266721
0.022297
0.0187825
0.0158838
0.0133968
0.011195
0.0092113
0.00749617
0.0060572
0.00491278
0.0040282
0.0033452
0.00287209
0.00257759
0.00247623
0.00255323
0.00275937
0.0687291
0.0715929
0.0707744
0.0661055
0.0587547
0.0501427
0.0418724
0.0348674
0.0292956
0.024995
0.0215753
0.0187601
0.0163758
0.0142407
0.0122002
0.0102074
0.00831477
0.00663104
0.00523663
0.00420738
0.00355579
0.00324401
0.00319669
0.00330017
0.00353192
0.0666584
0.0695062
0.069378
0.0658081
0.0595977
0.0519969
0.0441636
0.0373744
0.0319024
0.0277012
0.0244753
0.0218922
0.0197392
0.0178448
0.0160394
0.0141941
0.0122712
0.010324
0.00848459
0.0069087
0.00574018
0.0050436
0.00477263
0.00477913
0.00497642
0.064315
0.0670071
0.0674014
0.0648337
0.059779
0.0532441
0.0462792
0.0397436
0.0344497
0.0303511
0.0272542
0.0249189
0.023086
0.0215543
0.0201526
0.0187506
0.0172417
0.0155846
0.0138057
0.0120033
0.0103329
0.00896427
0.00802409
0.00753457
0.0073791
0.0617975
0.0642051
0.0649454
0.0632521
0.0593216
0.0538881
0.0478533
0.04201
0.0368777
0.0329256
0.0299508
0.027731
0.0261237
0.0249094
0.0239119
0.0229987
0.0220549
0.0209879
0.0197357
0.018301
0.0167393
0.0151508
0.0136518
0.0124825
0.01168
0.0592204
0.0612326
0.0621351
0.0611498
0.0582496
0.0539219
0.0488654
0.0437759
0.0391818
0.0353928
0.0325125
0.0304362
0.0289339
0.0278885
0.0271425
0.0265615
0.0260436
0.0254927
0.0248129
0.0239452
0.0228776
0.0216291
0.0202373
0.0188499
0.0176324
0.0567051
0.0582397
0.0591238
0.0586471
0.0566306
0.0533424
0.0492876
0.0450188
0.0410174
0.0376088
0.0349215
0.032933
0.0315484
0.0306205
0.0300008
0.029607
0.0293295
0.0290823
0.028776
0.0283321
0.027709
0.0268942
0.0258977
0.024741
0.0235772
0.0543667
0.0553831
0.0560892
0.0559032
0.0545731
0.0521935
0.0490888
0.0456715
0.0423347
0.0393809
0.0369797
0.0351721
0.0339138
0.0330993
0.0326006
0.0323015
0.0321547
0.0320875
0.032015
0.0318662
0.031583
0.0311371
0.0305226
0.0297444
0.0288348
0.0522973
0.0528082
0.0532201
0.0531145
0.0522396
0.0505786
0.0483054
0.0456975
0.0430517
0.0406225
0.0385841
0.0370164
0.0359171
0.0352202
0.0348281
0.0346466
0.034604
0.0346515
0.0347511
0.0348255
0.0348137
0.0346778
0.0344003
0.0339748
0.0334053
0.0505498
0.0506243
0.0506902
0.0504952
0.0498432
0.0486702
0.0470465
0.0451357
0.0431405
0.0412531
0.0396247
0.038348
0.0374493
0.0368928
0.0366089
0.0365182
0.0365875
0.0367734
0.0370114
0.037256
0.0374643
0.0375909
0.0376075
0.0375095
0.037284
0.049124
0.0488814
0.0486239
0.0482411
0.0476197
0.0467018
0.0455063
0.0441175
0.0426575
0.0412566
0.0400306
0.0390621
0.0383873
0.0379921
0.0378246
0.0378278
0.0379874
0.0382719
0.0386387
0.0390406
0.0394309
0.0397773
0.0400543
0.0402423
0.0403262
0.0479619
0.0475541
0.0470639
0.0464823
0.0457769
0.0449271
0.0439426
0.0428672
0.0417702
0.0407325
0.0398316
0.0391289
0.0386581
0.0384165
0.038364
0.0384522
0.0386756
0.0390174
0.039453
0.0399518
0.0404794
0.0410023
0.0414881
0.0419149
0.042266
0.0469519
0.0465392
0.0459531
0.0452422
0.0444341
0.0435492
0.0426131
0.0416624
0.040743
0.0399053
0.039198
0.0386612
0.0383199
0.038176
0.0382062
0.038348
0.0386014
0.0389562
0.0393993
0.039914
0.0404797
0.0410735
0.0416717
0.0422518
0.0427913
0.0459426
0.0456704
0.0451397
0.0444216
0.0435741
0.0426475
0.0416897
0.0407462
0.0398601
0.0390714
0.0384144
0.037916
0.0375927
0.0374485
0.0374707
0.0376227
0.0378545
0.0381702
0.0385613
0.0390176
0.0395283
0.0400809
0.040661
0.0412532
0.0418399
0.0447626
0.0447446
0.0444053
0.0438147
0.043039
0.0421427
0.0411867
0.0402268
0.0393124
0.0384846
0.0377762
0.0372106
0.036802
0.0365551
0.0364662
0.0365184
0.0366815
0.0369117
0.0371985
0.0375402
0.0379302
0.0383606
0.0388233
0.0393098
0.0398088
0.0432436
0.0435521
0.0435029
0.043155
0.0425701
0.0418114
0.0409419
0.0400215
0.0391038
0.0382343
0.0374495
0.0367758
0.0362305
0.035822
0.0355517
0.0354145
0.035398
0.0354804
0.0356404
0.0358445
0.0360818
0.0363504
0.0366475
0.0369694
0.0373083
0.0412389
0.0419027
0.0421969
0.0421677
0.0418655
0.0413448
0.0406624
0.0398746
0.0390342
0.0381882
0.0373758
0.0366275
0.0359654
0.0354036
0.0349492
0.0346038
0.0343645
0.0342237
0.0341704
0.0341874
0.0342609
0.0343786
0.0345231
0.0346809
0.0348506
0.038644
0.0396505
0.0402962
0.040614
0.0406421
0.0404238
0.0400059
0.039437
0.0387643
0.0380321
0.037279
0.0365373
0.0358327
0.0351836
0.0346027
0.0340973
0.0336707
0.0333226
0.0330499
0.0328464
0.032705
0.0326172
0.0325722
0.0325594
0.0325718
0.0354323
0.0367311
0.0376931
0.0383391
0.0386959
0.0387958
0.0386755
0.038374
0.0379315
0.0373863
0.0367738
0.0361254
0.0354671
0.0348199
0.0341998
0.0336184
0.0330833
0.0325991
0.0321677
0.0317891
0.0314615
0.0311815
0.0309446
0.0307459
0.030581
0.0317114
0.0332097
0.0344084
0.0353174
0.0359528
0.0363364
0.0364953
0.0364601
0.0362629
0.0359356
0.0355089
0.0350108
0.034466
0.0338953
0.0333161
0.0327419
0.0321831
0.0316473
0.0311397
0.0306637
0.0302209
0.0298118
0.0294357
0.0290916
0.0287787
0.0278066
0.0293547
0.0306521
0.0316973
0.0324987
0.0330707
0.0334314
0.0336032
0.0336105
0.0334784
0.0332318
0.0328943
0.0324874
0.0320304
0.0315396
0.0310288
0.0305094
0.0299904
0.0294786
0.0289792
0.028496
0.0280314
0.0275871
0.027164
0.0267641
0.0240218
0.0254228
0.0266374
0.0276584
0.0284714
0.029083
0.0295102
0.0297703
0.0298818
0.0298638
0.0297352
0.0295147
0.0292196
0.0288658
0.0284673
0.0280365
0.0275838
0.0271179
0.0266458
0.0261733
0.0257046
0.0252434
0.024792
0.0243526
0.0239281
0.0199358
0.020958
0.0218307
0.0225514
0.023127
0.0235633
0.0238701
0.0240583
0.0241397
0.0241262
0.02403
0.0238631
0.0236368
0.0233618
0.0230478
0.0227033
0.0223361
0.0219526
0.0215584
0.0211581
0.0207555
0.0203538
0.0199554
0.0195625
0.0191777
0.00989811
0.0103112
0.0106687
0.0109664
0.0112091
0.0114
0.0115422
0.0116388
0.0116935
0.0117097
0.0116912
0.0116418
0.0115652
0.0114651
0.0113449
0.0112081
0.0110575
0.0108961
0.0107262
0.0105503
0.0103701
0.0101875
0.010004
0.00982063
0.00963867
0.000479569
0.000511321
0.0018307
0.00226937
0.00257916
0.00260154
0.00303233
0.00312497
0.00348334
0.00382225
0.0041851
0.00473124
0.00527886
0.00565211
0.00611635
0.00745684
0.00764269
0.00789341
0.0112042
0.0109646
0.0108604
0.0166689
0.0159657
0.0154354
0.0225265
0.0216406
0.020868
0.0279376
0.0271038
0.0262992
0.0327569
0.0320972
0.0313999
0.0369543
0.0365458
0.0360607
0.0403015
0.0401897
0.0399876
0.0425128
0.042673
0.042754
0.0432382
0.0436228
0.0439562
0.0423616
0.042855
0.0433235
0.0402679
0.0407225
0.0411778
0.0376269
0.0379512
0.0382855
0.0350133
0.0351829
0.0353622
0.0326008
0.0326436
0.0326986
0.0304576
0.0303552
0.0302694
0.0285221
0.0282878
0.0280706
0.0264246
0.0261038
0.0257965
0.0235616
0.0232086
0.0228649
0.0188432
0.0185172
0.0181972
0.00948041
0.0093248
0.00917175
0.000114422
0.000240694
0.000385557
0.000510511
0.000622998
0.000723964
0.000817318
0.000904709
0.00098726
0.00106571
0.00114057
0.00121224
0.00128104
0.00134724
0.00141108
0.0014728
0.0015326
0.0015907
0.00164729
0.00170258
0.00175676
0.00181003
0.0018626
0.00191467
0.00196644
0.00201814
0.00206999
0.00212221
0.00217505
0.00222876
0.00228362
0.00233993
0.00239801
0.00245822
0.00252098
0.00258675
0.00265611
0.0027297
0.00280832
0.00289299
0.00298442
0.00308023
0.00318051
0.0032854
0.00339505
0.00350975
0.00362975
0.00375531
0.00388658
0.00402372
0.00416679
0.00431578
0.00447055
0.00463079
0.00479597
0.00496524
0.00513731
0.00531033
0.00548161
0.0056474
0.00580249
0.00593977
0.00604972
0.00612031
0.00614008
0.00610158
0.00600393
0.00584561
0.00562334
0.00533034
0.00496448
0.00451753
0.00400677
0.00346312
0.00291824
0.00244792
0.0020191
0.00161197
0.00120157
0.000719501
0.000392261
0.000748607
0.000956983
0.00114371
0.00134742
0.0015645
0.00178335
0.0020026
0.00221982
0.00243308
0.00264085
0.00284213
0.00303636
0.00322333
0.00340308
0.0035758
0.0037418
0.00390145
0.00405514
0.00420332
0.00434642
0.00448492
0.00461929
0.00475002
0.0048776
0.00500256
0.0051254
0.00524666
0.00536687
0.00548659
0.00560638
0.00572682
0.00584849
0.00597199
0.00609793
0.00622694
0.00635965
0.00649673
0.00663869
0.00678624
0.00694065
0.0071054
0.00727843
0.00745976
0.00764983
0.00784922
0.00805849
0.00827821
0.00850887
0.00875093
0.00900469
0.00927034
0.00954781
0.00983671
0.0101362
0.0104448
0.0107602
0.011079
0.0113961
0.0117043
0.0119938
0.0122504
0.0124561
0.0125902
0.0126323
0.0125793
0.0123982
0.0120673
0.0115702
0.0108508
0.0099876
0.0089875
0.00792106
0.00683949
0.00575493
0.00466102
0.00363538
0.00274654
0.00201522
0.00104494
0.000585584
0.00112885
0.0013877
0.00165199
0.00196015
0.00229252
0.00263166
0.00296891
0.00329781
0.00361462
0.00391753
0.00420605
0.00448053
0.0047417
0.00499043
0.00522761
0.00545407
0.00567055
0.00587774
0.00607626
0.00626667
0.00644953
0.00662537
0.00679472
0.0069581
0.00711605
0.00726913
0.00741789
0.00756293
0.00770484
0.00784427
0.00798187
0.00811831
0.00825431
0.00839059
0.00852792
0.00866709
0.0088089
0.00895415
0.00910364
0.00925817
0.00941933
0.0095898
0.00976856
0.00995585
0.0101523
0.0103585
0.0105753
0.0108033
0.0110431
0.0112951
0.0115595
0.0118362
0.0121246
0.0124237
0.0127315
0.0130453
0.0133608
0.0136722
0.0139716
0.0142487
0.0144901
0.0146786
0.0147937
0.0148061
0.0147025
0.0144611
0.0140592
0.0134738
0.0126879
0.0116984
0.0104785
0.00918683
0.00786681
0.00660227
0.00538994
0.00424967
0.00320187
0.00228271
0.0011285
0.000717337
0.00142341
0.00175818
0.002108
0.00251014
0.00293715
0.00336713
0.00378683
0.00418906
0.00457094
0.0049322
0.00527399
0.005598
0.005906
0.00619957
0.00648001
0.00674835
0.00700542
0.00725184
0.00748816
0.00771481
0.0079322
0.00814071
0.00834072
0.00853264
0.00871686
0.00889382
0.009064
0.00922788
0.00938599
0.00953892
0.00968726
0.00983166
0.00997281
0.0101114
0.0102483
0.0103843
0.0105202
0.0106569
0.0107952
0.0109363
0.0110809
0.0112317
0.0113898
0.0115549
0.0117275
0.0119082
0.0120978
0.0122969
0.0125061
0.0127256
0.0129556
0.0131958
0.0134455
0.0137032
0.0139667
0.014233
0.0144974
0.0147542
0.0149956
0.0152123
0.0153928
0.0155229
0.015586
0.0155586
0.015418
0.0151503
0.014738
0.0141609
0.0134022
0.0124538
0.0112888
0.00994253
0.00844868
0.00702573
0.00570624
0.00451154
0.00339704
0.00235466
0.00110786
0.000813884
0.00164876
0.00208045
0.00251839
0.00300201
0.00350206
0.00399469
0.00446712
0.00491412
0.00533521
0.00573231
0.00610825
0.00646583
0.00680749
0.00713509
0.00745
0.00775316
0.00804517
0.00832644
0.00859721
0.00885765
0.00910791
0.00934811
0.0095784
0.00979898
0.01001
0.0102119
0.0104047
0.010589
0.0107651
0.0109335
0.0110946
0.011249
0.0113973
0.0115403
0.0116785
0.0118129
0.0119443
0.0120735
0.0122016
0.0123295
0.0124583
0.012589
0.0127252
0.0128665
0.0130133
0.0131662
0.0133259
0.013493
0.0136681
0.0138514
0.0140429
0.0142423
0.0144487
0.0146605
0.0148754
0.0150902
0.0153003
0.0155
0.015682
0.0158374
0.0159558
0.0160249
0.0160302
0.0159567
0.0157899
0.0155173
0.0151269
0.0146022
0.0139286
0.0130761
0.0120166
0.0107382
0.00926567
0.00769898
0.00615375
0.00478585
0.00355241
0.00237462
0.00104241
0.000885046
0.00183316
0.00236717
0.00288771
0.00343763
0.00398925
0.00452105
0.00502352
0.00549505
0.00593812
0.00635678
0.0067552
0.00713691
0.00750464
0.00786024
0.00820488
0.0085392
0.00886345
0.00917765
0.00948168
0.00977536
0.0100585
0.0103309
0.0105925
0.0108432
0.011083
0.0113119
0.0115302
0.0117378
0.0119352
0.0121226
0.0123003
0.0124689
0.0126288
0.0127805
0.0129249
0.0130626
0.0131943
0.0133212
0.013444
0.013564
0.0136821
0.0137996
0.0139182
0.0140406
0.0141668
0.0142973
0.0144328
0.0145742
0.0147219
0.0148765
0.015038
0.0152061
0.0153801
0.0155586
0.0157391
0.0159187
0.0160928
0.0162558
0.0164006
0.0165186
0.0165994
0.0166312
0.0166007
0.0164945
0.0163014
0.016014
0.0156281
0.0151401
0.0145424
0.0138136
0.0129114
0.0117799
0.0103728
0.00871658
0.00695889
0.00530401
0.00383217
0.00243724
0.00096043
0.000942282
0.00199396
0.00262584
0.00321808
0.00381766
0.0044015
0.00495346
0.00546911
0.00595091
0.00640421
0.00683486
0.00724797
0.00764751
0.00803618
0.00841563
0.00878668
0.00914954
0.00950402
0.00984969
0.010186
0.0105125
0.0108284
0.0111334
0.0114271
0.0117091
0.0119792
0.0122372
0.0124831
0.0127168
0.0129385
0.0131483
0.0133465
0.0135333
0.0137092
0.0138745
0.01403
0.0141762
0.014314
0.0144443
0.014568
0.0146862
0.0148002
0.0149111
0.0150202
0.0151309
0.015244
0.01536
0.01548
0.0156048
0.0157353
0.0158723
0.0160161
0.0161668
0.016324
0.0164865
0.0166524
0.0168187
0.0169815
0.0171351
0.0172726
0.0173851
0.0174621
0.0174911
0.0174587
0.0173506
0.0171543
0.0168612
0.0164692
0.0159819
0.0154061
0.0147427
0.0139679
0.013013
0.0117608
0.0101155
0.00813381
0.00607267
0.00425415
0.00257328
0.000913217
0.000994078
0.00214245
0.00286239
0.00351279
0.0041455
0.00474475
0.00530178
0.00581788
0.00629954
0.00675461
0.00719036
0.00761253
0.00802518
0.00843084
0.0088308
0.0092254
0.00961438
0.00999706
0.0103726
0.0107399
0.0110981
0.0114463
0.0117836
0.0121094
0.0124231
0.0127242
0.0130124
0.0132874
0.0135491
0.0137974
0.0140323
0.0142538
0.0144623
0.0146578
0.0148409
0.0150119
0.0151715
0.0153204
0.0154595
0.0155897
0.0157123
0.0158285
0.0159396
0.0160471
0.0161529
0.01626
0.0163693
0.0164818
0.0165988
0.0167215
0.016851
0.0169881
0.0171335
0.0172872
0.0174485
0.0176163
0.017788
0.0179601
0.0181276
0.0182837
0.0184194
0.0185241
0.0185845
0.0185857
0.018511
0.018344
0.0180703
0.0176808
0.0171788
0.0165761
0.0158955
0.0151495
0.0143088
0.0132541
0.0117804
0.00972669
0.0072283
0.00486624
0.00279131
0.00089723
0.00104653
0.00228824
0.00308423
0.00377799
0.00442799
0.00502805
0.00557781
0.00608437
0.0065579
0.00700836
0.007444
0.00787085
0.00829286
0.00871219
0.00912965
0.00954507
0.00995766
0.0103663
0.0107695
0.011166
0.0115544
0.0119334
0.012302
0.0126592
0.0130041
0.0133362
0.0136548
0.0139595
0.01425
0.0145262
0.0147878
0.0150348
0.0152673
0.0154855
0.0156894
0.0158796
0.0160565
0.0162208
0.0163732
0.0165149
0.0166469
0.0167707
0.0168876
0.0169993
0.0171072
0.0172151
0.0173241
0.0174359
0.017552
0.0176741
0.0178037
0.0179421
0.0180905
0.0182496
0.0184195
0.0185997
0.0187884
0.018983
0.019179
0.0193704
0.019549
0.0197039
0.0198219
0.0198869
0.0198801
0.0197811
0.0195698
0.0192211
0.0187313
0.0181009
0.0173535
0.0165288
0.0156591
0.0147044
0.0134769
0.0116153
0.00895274
0.0058663
0.00320069
0.000924628
0.00110533
0.0024424
0.00330175
0.00402335
0.00467524
0.00526291
0.00579484
0.00628367
0.00674275
0.00718361
0.00761505
0.00804309
0.00847129
0.00890131
0.00933341
0.00976686
0.0102003
0.0106322
0.0110606
0.0114838
0.0119002
0.012308
0.0127061
0.0130931
0.013468
0.0138301
0.0141784
0.0145126
0.014832
0.0151364
0.0154256
0.0156993
0.0159574
0.0162
0.0164273
0.0166393
0.0168366
0.0170197
0.0171893
0.0173464
0.0174922
0.0176282
0.0177558
0.0178767
0.0179926
0.0181064
0.0182205
0.0183369
0.0184575
0.0185841
0.0187189
0.0188637
0.0190202
0.0191898
0.0193734
0.0195711
0.0197822
0.0200051
0.0202362
0.0204707
0.0207013
0.0209182
0.0211088
0.0212571
0.0213437
0.0213455
0.0212363
0.0209884
0.0205777
0.0199813
0.0192026
0.0182672
0.0172357
0.0161694
0.0150218
0.0134875
0.0110427
0.00749022
0.00397531
0.0010292
0.00118017
0.0026212
0.00352926
0.00426234
0.00490083
0.00546354
0.0059681
0.0064322
0.00687163
0.0072989
0.00772285
0.00814911
0.00858067
0.00901855
0.00946237
0.00991085
0.0103621
0.0108142
0.0112648
0.0117118
0.0121532
0.0125873
0.0130123
0.0134269
0.0138299
0.0142202
0.014597
0.0149595
0.0153072
0.0156395
0.0159562
0.0162569
0.0165414
0.0168097
0.0170617
0.0172976
0.0175176
0.0177222
0.0179119
0.0180878
0.0182511
0.0184031
0.0185455
0.01868
0.0188084
0.0189327
0.0190564
0.0191818
0.0193108
0.0194459
0.0195895
0.0197438
0.0199112
0.0200937
0.0202927
0.0205094
0.0207441
0.0209959
0.0212628
0.0215411
0.021825
0.0221063
0.0223739
0.0226133
0.0228063
0.02293
0.0229573
0.0228562
0.0225912
0.0221251
0.0214269
0.0204753
0.0192975
0.0179758
0.0165995
0.0151361
0.0131447
0.0099154
0.00530787
0.00125354
0.00128175
0.00284612
0.0037838
0.0045136
0.005123
0.00564799
0.00611583
0.00654879
0.00696411
0.0073744
0.007788
0.00820978
0.00864192
0.0090847
0.00953709
0.00999725
0.0104629
0.0109316
0.0114008
0.0118681
0.0123312
0.0127882
0.0132372
0.0136767
0.0141052
0.0145216
0.0149248
0.015314
0.0156886
0.0160479
0.0163914
0.0167188
0.0170297
0.017324
0.0176016
0.0178625
0.0181068
0.0183349
0.0185472
0.0187447
0.0189284
0.0190998
0.0192605
0.0194122
0.0195566
0.0196957
0.0198331
0.019971
0.0201119
0.0202585
0.0204134
0.0205794
0.0207591
0.0209552
0.0211698
0.0214048
0.0216614
0.0219399
0.0222395
0.0225579
0.022891
0.0232324
0.0235731
0.0239012
0.0242006
0.0244513
0.0246284
0.024701
0.0246315
0.0243748
0.0238786
0.0230892
0.0219643
0.020495
0.0187591
0.0169175
0.0149385
0.0122207
0.00753933
0.0016209
0.00143785
0.00313382
0.0040786
0.00479084
0.00536242
0.00583849
0.00626004
0.0066558
0.00704292
0.00743312
0.00783358
0.00824803
0.00867769
0.00912201
0.00957934
0.0100474
0.0105234
0.0110046
0.0114883
0.0119719
0.0124529
0.0129292
0.0133987
0.0138597
0.0143108
0.0147505
0.0151778
0.0155916
0.0159913
0.016376
0.0167451
0.0170983
0.017435
0.017755
0.0180582
0.0183445
0.018614
0.0188668
0.0191035
0.0193248
0.0195316
0.0197253
0.0199073
0.0200794
0.0202433
0.0204008
0.020555
0.0207087
0.0208644
0.0210249
0.0211932
0.0213723
0.0215653
0.021775
0.0220044
0.0222559
0.0225316
0.0228328
0.0231599
0.0235121
0.0238869
0.02428
0.0246847
0.0250916
0.0254881
0.0258578
0.0261797
0.0264278
0.026569
0.0265616
0.0263524
0.025874
0.0250441
0.0237754
0.0220015
0.0197497
0.0171984
0.0143791
0.0107084
0.00235158
0.00166088
0.00358667
0.00446354
0.00511596
0.00563381
0.00605704
0.00642538
0.00677925
0.00713461
0.00750168
0.00788594
0.00828975
0.00871324
0.00915509
0.00961308
0.0100845
0.0105662
0.0110554
0.0115491
0.0120445
0.0125391
0.0130305
0.0135166
0.0139957
0.0144659
0.0149259
0.0153744
0.0158104
0.0162329
0.016641
0.0170341
0.0174116
0.0177729
0.0181177
0.0184458
0.0187571
0.0190516
0.0193297
0.0195919
0.0198388
0.020071
0.0202894
0.0204955
0.0206907
0.0208769
0.0210559
0.0212298
0.021402
0.0215751
0.0217519
0.0219354
0.0221288
0.0223355
0.0225586
0.0228016
0.0230674
0.0233588
0.023678
0.0240265
0.0244048
0.0248122
0.0252461
0.0257023
0.026174
0.0266519
0.0271234
0.0275725
0.0279789
0.0283171
0.0285548
0.02865
0.0285467
0.0281679
0.0274075
0.026121
0.0241439
0.0213686
0.0178775
0.0139646
0.00940332
0.00227587
0.00412552
0.00492594
0.00549501
0.00594121
0.00630979
0.00663445
0.00694566
0.00726816
0.00760989
0.00797489
0.00836423
0.00877717
0.00921176
0.00966535
0.0101349
0.0106173
0.0111093
0.0116079
0.0121103
0.0126137
0.0131159
0.0136145
0.0141076
0.0145934
0.0150703
0.015537
0.0159922
0.0164349
0.016864
0.0172788
0.0176785
0.0180625
0.0184305
0.018782
0.019117
0.0194359
0.0197393
0.0200278
0.0203014
0.0205603
0.0208052
0.0210373
0.021258
0.0214687
0.0216713
0.0218677
0.0220611
0.0222539
0.0224489
0.0226492
0.0228581
0.0230789
0.0233152
0.0235705
0.0238483
0.0241519
0.0244842
0.0248477
0.025244
0.0256739
0.0261366
0.02663
0.0271498
0.0276897
0.0282406
0.0287911
0.0293264
0.0298284
0.0302749
0.0306375
0.0308803
0.0309544
0.0307921
0.0302934
0.0293088
0.0276256
0.0249924
0.0213379
0.0171233
0.00324343
0.00475169
0.00544952
0.00591787
0.00628921
0.00660621
0.00689588
0.0071782
0.00747207