/*--------------------------------*- C++ -*----------------------------------*\
| =========                 |                                                 |
| \\      /  F ield         | OpenFOAM: The Open Source CFD Toolbox           |
|  \\    /   O peration     | Version:  v2012                                 |
|   \\  /    A nd           | Website:  www.openfoam.com                      |
|    \\/     M anipulation  |                                                 |
\*---------------------------------------------------------------------------*/
FoamFile
{
    version     2.0;
    format      ascii;
    class       volScalarField;
    location    "504";
    object      nut;
}
// * * * * * * * * * * * * * * * * * * * * * * * * * * * * * * * * * * * * * //

dimensions      [0 2 -1 0 0 0 0];


internalField   nonuniform List<scalar> 
6556
(
0.00330708
0.0116811
0.0140645
0.0144789
0.0143712
0.0143712
0.0144789
0.0140645
0.0116811
0.00330708
0.00244067
0.00950583
0.0128307
0.0137814
0.0138878
0.0138878
0.0137814
0.0128307
0.00950583
0.00244067
0.00193137
0.00813499
0.011724
0.0130623
0.0133904
0.0133904
0.0130623
0.011724
0.008135
0.00193137
0.00160448
0.00717778
0.0107797
0.0123614
0.0128677
0.0128677
0.0123614
0.0107797
0.00717778
0.00160448
0.00137932
0.00646315
0.00998091
0.0116995
0.012332
0.012332
0.0116995
0.00998092
0.00646316
0.00137933
0.00121527
0.00590335
0.0093009
0.0110844
0.0117983
0.0117983
0.0110844
0.00930092
0.00590336
0.00121527
0.00109028
0.00544868
0.00871516
0.0105171
0.0112784
0.0112784
0.0105171
0.00871519
0.00544871
0.00109028
0.000991613
0.00506898
0.0082042
0.00999524
0.0107798
0.0107798
0.00999527
0.00820424
0.00506902
0.000991615
0.000911476
0.00474492
0.00775316
0.00951543
0.0103067
0.0103067
0.00951547
0.00775322
0.00474498
0.000911479
0.000844873
0.00446358
0.00735087
0.00907381
0.00986083
0.00986086
0.00907387
0.00735097
0.00446367
0.000844877
0.000788466
0.00421595
0.00698892
0.00866669
0.00944259
0.00944263
0.0086668
0.00698906
0.00421608
0.000788473
0.000739947
0.00399559
0.00666085
0.00829069
0.0090512
0.00905126
0.00829084
0.00666106
0.00399579
0.000739957
0.00069767
0.00379772
0.00636166
0.00794271
0.00868539
0.00868549
0.00794294
0.00636198
0.00379801
0.000697684
0.000660428
0.00361871
0.0060874
0.00762001
0.00834361
0.00834376
0.00762036
0.00608788
0.00361914
0.000660447
0.000627316
0.00345574
0.00583487
0.00732014
0.0080242
0.00802442
0.00732067
0.00583558
0.00345636
0.000627344
0.000597641
0.00330656
0.00560147
0.00704093
0.00772548
0.0077258
0.00704171
0.00560249
0.00330745
0.000597681
0.000570864
0.00316936
0.00538498
0.00678041
0.00744582
0.00744628
0.00678158
0.00538644
0.00317056
0.000570918
0.000546555
0.0030426
0.00518354
0.00653684
0.0071837
0.00718435
0.00653857
0.00518555
0.00304405
0.000546626
0.000524368
0.002925
0.00499551
0.00630864
0.00693765
0.00693859
0.00631115
0.00499835
0.0029266
0.000524457
0.00050402
0.00281545
0.00481947
0.00609435
0.00670632
0.00670771
0.00609803
0.00482329
0.00281542
0.000504116
0.000485278
0.00271294
0.00465409
0.00589265
0.00648848
0.00649064
0.00589896
0.00466544
0.00274431
0.000560469
0.000467942
0.00261662
0.00449821
0.0057023
0.00628295
0.00628641
0.00571337
0.0045231
0.00268922
0.000636
0.000451848
0.00252573
0.00435079
0.0055222
0.0060887
0.0060941
0.00554048
0.00439505
0.00265254
0.000730462
0.00043685
0.00243961
0.00421091
0.00535137
0.00590475
0.00591271
0.00537893
0.00427786
0.00264796
0.000850296
0.000422826
0.00235769
0.00407773
0.00518887
0.00573013
0.00574097
0.00522604
0.00417621
0.00267227
0.00100206
0.00040967
0.00227943
0.00395049
0.00503387
0.00556403
0.0055783
0.00508094
0.00409346
0.00271271
0.00118556
0.000397286
0.00220436
0.00382849
0.00488561
0.00540577
0.00542475
0.00494965
0.00402108
0.0027567
0.00139538
0.000385592
0.00213201
0.00371107
0.00474337
0.00525478
0.00528006
0.00483067
0.00396048
0.00280319
0.00162282
0.000374513
0.00206197
0.00359758
0.00460649
0.00511049
0.00514381
0.0047228
0.0039107
0.00285564
0.00185164
0.000363983
0.00199385
0.00348743
0.00447433
0.00497235
0.00501552
0.00462506
0.00387105
0.00291538
0.00207063
0.00035394
0.00192726
0.00338003
0.00434627
0.00483979
0.00489461
0.00453655
0.00384091
0.0029821
0.00227745
0.000344328
0.00186184
0.00327483
0.0042217
0.00471224
0.00478048
0.00445646
0.00381941
0.00305293
0.00247012
0.000335096
0.00179723
0.00317125
0.0041
0.0045891
0.0046725
0.00438395
0.00380544
0.00312624
0.00264747
0.000326194
0.0017331
0.00306874
0.00398054
0.00446972
0.00456996
0.00431812
0.00379787
0.00320022
0.00280879
0.000317576
0.00166913
0.00296671
0.00386263
0.00435339
0.00447209
0.00425804
0.00379544
0.00327306
0.00295369
0.000309198
0.00160503
0.00286458
0.00374557
0.00423937
0.00437805
0.00420269
0.00379679
0.00334306
0.00308199
0.000301017
0.00154051
0.00276177
0.0036286
0.00412681
0.00428692
0.00415094
0.00380047
0.00340877
0.00319383
0.000292991
0.00147538
0.00265773
0.00351095
0.0040148
0.00419766
0.00410158
0.00380504
0.00346904
0.00328965
0.000285079
0.00140945
0.00255194
0.00339182
0.00390238
0.00410915
0.0040533
0.00380905
0.00352306
0.00337037
0.00027724
0.00134264
0.00244394
0.0032704
0.00378849
0.00402014
0.00400468
0.00381109
0.00357032
0.00343741
0.000269435
0.00127494
0.00233335
0.00314587
0.00367199
0.00392925
0.00395421
0.00380977
0.0036106
0.00349264
0.000261622
0.00120644
0.0022199
0.00301746
0.00355166
0.00383496
0.00390022
0.00380364
0.00364375
0.00353818
0.000253763
0.00113732
0.00210347
0.00288443
0.00342622
0.00373556
0.00384084
0.00379113
0.00366948
0.00357609
0.000245814
0.0010678
0.00198403
0.00274608
0.00329429
0.00362917
0.00377393
0.00377035
0.00368708
0.0036079
0.000237734
0.000998132
0.00186168
0.00260178
0.00315442
0.00351365
0.003697
0.00373893
0.00369506
0.00363398
0.000229474
0.000928584
0.00173661
0.00245101
0.00300508
0.00338663
0.00360713
0.00369385
0.00369087
0.00365308
0.00022098
0.000859391
0.00160907
0.00229331
0.00284479
0.00324554
0.00350096
0.00363135
0.0036707
0.00366183
0.000212189
0.000790752
0.00147938
0.00212839
0.00267209
0.00308771
0.00337476
0.00354695
0.00362945
0.00365471
0.00020302
0.000722814
0.00134787
0.00195612
0.0024858
0.0029106
0.00322469
0.00343564
0.00356096
0.00362429
0.000193368
0.000655676
0.00121497
0.00177671
0.00228517
0.0027121
0.00304717
0.0032924
0.00345859
0.00356192
0.000183086
0.000589412
0.00108124
0.00159086
0.00207032
0.00249119
0.00283967
0.00311297
0.00331608
0.00345882
0.00017195
0.000524093
0.000947724
0.00140027
0.00184291
0.00224872
0.00260171
0.00289509
0.00312889
0.00330757
0.000159599
0.000459742
0.000816147
0.00120836
0.00160722
0.00198884
0.00233637
0.00264005
0.00289583
0.0031031
0.000111631
0.000401158
0.00069155
0.00102164
0.00137127
0.00172018
0.00205173
0.0023541
0.00261911
0.002843
0.000108516
0.000355587
0.000586589
0.000854321
0.00114983
0.00145756
0.00176161
0.00204756
0.00230721
0.00253616
0.000107304
0.000324196
0.000513728
0.000725767
0.000965314
0.00122337
0.00148518
0.00174055
0.00198151
0.0022022
7.86609e-05
0.000310291
0.000474299
0.000646029
0.000835845
0.00103929
0.00125173
0.00146599
0.0016749
0.0018723
6.72059e-05
0.000294944
0.00045806
0.000604916
0.000739143
0.000867777
0.00100649
0.00115329
0.00130108
0.00144569
6.52476e-05
0.000225302
0.000429664
0.000558442
0.000678581
0.000710727
0.000773894
0.000868949
0.000976461
0.00108658
6.92175e-05
0.000115555
0.000143752
0.000175664
0.00020594
0.000226149
0.000241378
0.000253932
0.000264205
0.00027258
0.000145346
0.000163893
0.000166255
0.000171419
0.000175591
0.000178143
0.000178925
0.000177809
0.000174371
0.000170213
0.000165269
0.000159523
0.000153037
0.000146065
0.000138757
0.000131196
0.000123285
0.000115939
0.000108847
0.000101737
9.43728e-05
8.64556e-05
7.74927e-05
6.64696e-05
4.26725e-05
0.000259345
0.000530894
0.000803856
0.000951834
0.00103092
0.0010781
0.00110255
0.00110694
0.00109015
0.00105889
0.00101959
0.000972484
0.000918288
0.000859893
0.000799183
0.000736827
0.000670497
0.000579879
0.000482268
0.000389258
0.000307515
0.000240214
0.000188888
0.000148392
5.1083e-05
0.000408439
0.000668796
0.00103936
0.00134231
0.00152077
0.00162382
0.00167895
0.00169869
0.00156447
0.00149828
0.00153102
0.00153315
0.00145989
0.00138078
0.00129754
0.00120972
0.00111279
0.000988934
0.00084193
0.000684622
0.000532297
0.000398793
0.000292827
0.000207286
5.51799e-05
0.000671847
0.000702186
0.00106137
0.00140463
0.00165432
0.00179366
0.00186505
0.00189118
0.00178115
0.00169132
0.00169188
0.00172073
0.00164875
0.00157521
0.00150083
0.00142269
0.0013336
0.00121774
0.00107016
0.000896517
0.000710876
0.000533146
0.000380791
0.000249009
5.76708e-05
0.00102181
0.000881727
0.00120099
0.00142304
0.00166866
0.00183018
0.00190591
0.00192844
0.00191272
0.0018681
0.00180335
0.0017288
0.001655
0.00158836
0.00152884
0.00147063
0.00140313
0.00131012
0.00118183
0.00101776
0.000827313
0.000629886
0.000446847
0.00027615
5.77678e-05
0.00128784
0.0012036
0.00139607
0.00152889
0.00169348
0.00183514
0.00190948
0.00192466
0.00189735
0.00183969
0.00176158
0.00167387
0.00159094
0.0015245
0.00147575
0.00143646
0.00139159
0.00132287
0.00121742
0.00107123
0.000889772
0.000689155
0.000489773
0.000290758
5.69442e-05
0.00150958
0.00160963
0.0016272
0.00168518
0.00178899
0.00187135
0.00191647
0.0019204
0.0018807
0.00180855
0.0017146
0.0016109
0.00151337
0.00143821
0.00139263
0.0013675
0.00134216
0.00129415
0.00120836
0.00107996
0.000912147
0.000717257
0.000511986
0.000295361
5.55797e-05
0.00172525
0.00186083
0.00187266
0.00188752
0.00193342
0.00197119
0.00197523
0.00194317
0.00187962
0.00179126
0.00168067
0.00155887
0.0014439
0.00135454
0.00130255
0.00128384
0.00127365
0.00124229
0.00117181
0.00105895
0.000905854
0.000721245
0.000517199
0.000292291
5.38192e-05
0.0019362
0.00209113
0.00212187
0.00211744
0.00211409
0.00211015
0.00207964
0.00201657
0.00192251
0.00180401
0.00166875
0.00152565
0.00138999
0.00128184
0.00121494
0.00119199
0.00118774
0.00116831
0.00111145
0.00101405
0.000877196
0.000706272
0.00050859
0.000282655
5.18373e-05
0.00214122
0.00231085
0.00236566
0.00235436
0.0023184
0.00227884
0.00221699
0.00212542
0.00200291
0.00185507
0.00168822
0.00151641
0.00135525
0.0012238
0.00113464
0.001095
0.00108902
0.00107678
0.00103085
0.000948053
0.000828062
0.000672842
0.00048519
0.000264603
5.00147e-05
0.00233909
0.00252056
0.0025999
0.00259311
0.00253807
0.00246914
0.0023798
0.00226399
0.00211683
0.00193927
0.00173933
0.00153341
0.00134142
0.00118213
0.00106669
0.000999383
0.000979474
0.000969406
0.00093485
0.000865975
0.000762669
0.000624197
0.000450058
0.000241949
4.82171e-05
0.00252868
0.00271893
0.00282165
0.00282935
0.00277105
0.00267404
0.00256167
0.00242676
0.00225987
0.00205579
0.0018245
0.00158087
0.00135264
0.0011622
0.00101775
0.000918197
0.000869028
0.000853804
0.000828549
0.000771977
0.000684711
0.000564081
0.000407537
0.000218442
4.63758e-05
0.00270748
0.00290344
0.00302743
0.00305203
0.00299347
0.00288296
0.00275586
0.00260882
0.00242961
0.00220735
0.00194574
0.00166648
0.00139862
0.00117286
0.000997963
0.000829758
0.000776203
0.000736614
0.000716854
0.000670855
0.000598915
0.000496005
0.000363505
0.000198809
4.45043e-05
0.00287272
0.00307202
0.00321424
0.00325584
0.00320405
0.00309157
0.00295687
0.00280513
0.00262231
0.0023918
0.00211186
0.00180149
0.00149329
0.00122653
0.00101678
0.000792671
0.000661188
0.00064192
0.000601755
0.000568922
0.000511721
0.000423758
0.000309513
0.000187158
4.28188e-05
0.00302177
0.00321605
0.0033782
0.00343756
0.00340028
0.00329757
0.00315943
0.00301041
0.00283399
0.00260779
0.00232378
0.00199572
0.00165378
0.00134272
0.00108811
0.000889101
0.00061957
0.000503415
0.000493164
0.000479157
0.000434019
0.000359222
0.00024022
0.000147715
5.78994e-05
0.0031526
0.00334173
0.00349443
0.00359365
0.00357485
0.0034835
0.00335618
0.00321845
0.00305892
0.00285072
0.00258041
0.00225466
0.00189598
0.00154873
0.00124239
0.000990329
0.000790652
0.000521563
0.000390935
0.000336433
0.000331367
0.00029304
0.00024779
0.000198062
0.000127185
0.00326413
0.00345585
0.00361965
0.00372278
0.0037238
0.00365103
0.00354535
0.00342367
0.00329028
0.00300136
0.00275526
0.00257564
0.0022292
0.00187017
0.00152405
0.00121212
0.000945981
0.000733057
0.00056686
0.000398016
0.000323523
0.000291903
0.000280349
0.000257107
0.000203383
0.00335585
0.00353839
0.0037143
0.00382239
0.00384518
0.00379555
0.00371161
0.00361899
0.00351751
0.00326989
0.00297567
0.00274453
0.00256713
0.00230876
0.0019619
0.00161694
0.00128986
0.000999006
0.000759782
0.000582947
0.000468073
0.000405212
0.000379921
0.000373293
0.000381989
0.00342836
0.00359756
0.00377214
0.00389103
0.00393626
0.0039135
0.00385308
0.00378993
0.00372711
0.00365017
0.00341974
0.00316112
0.00293642
0.00272892
0.00251728
0.00220076
0.00186562
0.00153592
0.00123167
0.000974625
0.000782864
0.000662492
0.000604903
0.000587823
0.00058995
0.00348332
0.00363487
0.00380333
0.00393012
0.00399482
0.00399948
0.00396489
0.00392696
0.00390067
0.00387355
0.00383014
0.00374659
0.00353945
0.0033134
0.00307272
0.00280084
0.00249986
0.00218325
0.001866
0.00156369
0.00129359
0.00105586
0.000860668
0.000741853
0.000673906
0.00352344
0.0036532
0.00381025
0.00394039
0.00402011
0.00405028
0.00404446
0.00402777
0.00402723
0.0040411
0.00405655
0.00405119
0.00400096
0.00389978
0.00375885
0.00358847
0.00330434
0.00296026
0.00259227
0.00223674
0.00192041
0.00164785
0.00141965
0.00126049
0.00118051
0.00355225
0.00365675
0.00379693
0.0039248
0.00401532
0.00406503
0.00408505
0.00409267
0.00410836
0.0041453
0.00420182
0.00425878
0.00428837
0.00427803
0.00423143
0.00415567
0.0040575
0.00388405
0.00355233
0.0032171
0.0029164
0.00265519
0.00242986
0.00225517
0.00214937
0.00357379
0.00365086
0.00376901
0.00388821
0.00398361
0.00404779
0.00408691
0.00411544
0.00414839
0.00419697
0.00426919
0.00435851
0.00444373
0.00450515
0.00453729
0.00454163
0.00452173
0.00448204
0.00434347
0.00410041
0.00387924
0.00368711
0.00351676
0.00336694
0.00325527
0.00359194
0.0036415
0.00373358
0.00383758
0.00393078
0.00400326
0.00405655
0.00409999
0.00414588
0.00420452
0.00428255
0.00437977
0.00448593
0.0045879
0.00467584
0.00474237
0.00478283
0.00480071
0.00469714
0.00456924
0.00446084
0.00436512
0.00427449
0.00418697
0.00410577
0.00360958
0.00363433
0.0036985
0.00378165
0.00386519
0.00393849
0.00399962
0.00405346
0.0041085
0.00417341
0.00425425
0.00435291
0.00446512
0.00458165
0.00469279
0.00479072
0.00477079
0.00470003
0.0046413
0.00460373
0.00458123
0.00456628
0.00455381
0.00453915
0.00452056
0.00362765
0.00363341
0.00367105
0.00372996
0.00379722
0.00386343
0.00392487
0.00398301
0.00404265
0.00411
0.00419089
0.00428793
0.00439944
0.00451884
0.00463694
0.00458066
0.00448248
0.00441208
0.0043746
0.00436376
0.00437354
0.00439974
0.00445396
0.00447126
0.00450442
0.00364425
0.00363977
0.00365611
0.00369102
0.00373784
0.0037901
0.00384398
0.00389894
0.00395721
0.00402279
0.00409975
0.00419075
0.00429551
0.0044096
0.00444893
0.00430377
0.00418711
0.00410907
0.004065
0.0040443
0.00404813
0.00407367
0.00411463
0.00416637
0.00422304
0.00365419
0.00365017
0.00365406
0.00366966
0.00369596
0.00373019
0.00376999
0.00381465
0.00386508
0.00392333
0.00399186
0.0040726
0.00416575
0.00426834
0.00426468
0.00407221
0.00392566
0.00382281
0.0037553
0.00371939
0.00371056
0.00372377
0.00375394
0.0037974
0.00384914
0.00364913
0.00365668
0.00365939
0.0036644
0.0036748
0.00369136
0.00371437
0.00374402
0.00378095
0.00382631
0.00388149
0.00394765
0.00402508
0.00411219
0.00420412
0.00397788
0.00378505
0.0036503
0.00355527
0.00349124
0.00345441
0.00344113
0.00344743
0.003469
0.00350302
0.00361841
0.00364738
0.00366048
0.00366579
0.00366877
0.00367335
0.0036819
0.00369601
0.00371697
0.00374596
0.00378401
0.00383193
0.00388998
0.0039575
0.00403209
0.00406704
0.0038214
0.00363323
0.0034996
0.00340412
0.00333655
0.00329253
0.00326923
0.00326325
0.00327169
0.00355037
0.00360776
0.0036405
0.00365671
0.00366321
0.00366508
0.00366613
0.00366921
0.0036765
0.00368972
0.00371016
0.00373871
0.00377581
0.00382137
0.00387452
0.00393317
0.00399362
0.00382601
0.00363349
0.00349054
0.00338567
0.00330911
0.00325519
0.00321975
0.00319976
0.00343391
0.00352183
0.00358019
0.00361623
0.00363628
0.00364564
0.00364868
0.00364895
0.00364929
0.00365197
0.00365873
0.00367083
0.00368912
0.00371395
0.00374526
0.00378251
0.00382451
0.00386912
0.00391457
0.00379789
0.00364045
0.0035196
0.00342963
0.003363
0.00331509
0.00325837
0.00337604
0.00346253
0.00352345
0.00356413
0.00358939
0.00360348
0.00361005
0.00361218
0.00361246
0.00361296
0.00361532
0.00362074
0.00363005
0.00364372
0.00366191
0.00368446
0.00371091
0.00374051
0.00377195
0.00380434
0.00383703
0.00380379
0.00369981
0.00361902
0.00302039
0.00316337
0.00327623
0.00336283
0.0034272
0.00347323
0.0035046
0.00352466
0.00353637
0.00354233
0.00354473
0.00354541
0.00354582
0.00354711
0.00355011
0.0035554
0.00356334
0.00357407
0.00358756
0.00360357
0.00362179
0.00364182
0.003663
0.00368468
0.00370649
0.00272579
0.00288623
0.00301973
0.00312846
0.00321501
0.00328221
0.00333292
0.0033699
0.00339575
0.00341286
0.00342331
0.00342895
0.00343134
0.00343175
0.00343122
0.00343058
0.00343046
0.00343129
0.00343342
0.00343701
0.00344215
0.00344883
0.00345691
0.00346624
0.0034766
0.00239179
0.00255846
0.00270277
0.00282545
0.00292782
0.0030116
0.00307877
0.0031314
0.00317154
0.00320117
0.00322213
0.00323609
0.00324452
0.0032487
0.00324973
0.00324852
0.00324583
0.00324226
0.00323831
0.00323436
0.00323068
0.0032275
0.00322494
0.00322311
0.00322206
0.0020468
0.00220479
0.00234564
0.00246897
0.00257528
0.00266546
0.00274059
0.00280197
0.00285104
0.00288926
0.00291804
0.00293875
0.00295265
0.00296089
0.00296447
0.0029643
0.00296115
0.00295566
0.00294841
0.00293985
0.00293037
0.0029203
0.0029099
0.00289939
0.00288902
0.00158405
0.00172537
0.0018745
0.00203475
0.00215206
0.00223208
0.0022995
0.00235516
0.0024
0.00243502
0.00246124
0.00247968
0.00249131
0.00249707
0.0024978
0.0024943
0.00248725
0.00247728
0.00246494
0.00245072
0.00243503
0.00241822
0.00240062
0.0023825
0.0023642
0.00119669
0.00131556
0.00141208
0.00146823
0.00151598
0.0015554
0.00158693
0.0016111
0.00162852
0.00163979
0.00164557
0.00164648
0.00164317
0.00163621
0.00162618
0.0016136
0.00159893
0.0015826
0.00156498
0.00154641
0.00152718
0.00150753
0.00148767
0.00146779
0.00144811
0.000279274
0.000285042
0.000289941
0.000293959
0.000297194
0.000299714
0.000301577
0.000302837
0.000303547
0.000303758
0.000303518
0.000302876
0.000301878
0.000300568
0.000298989
0.00029718
0.000295178
0.000293015
0.000290722
0.000288327
0.000285855
0.000283328
0.000280763
0.000278179
0.00027559
4.43452e-05
6.34751e-05
4.27695e-05
0.000132599
9.56172e-05
0.000211211
0.000201789
0.000288966
0.000353197
0.000408945
0.00046371
0.000385222
0.000484324
0.000460326
0.000517587
0.000658602
0.000701237
0.00080993
0.00118055
0.0012407
0.00133979
0.00210882
0.00211843
0.0021605
0.00318099
0.00314282
0.00313729
0.00404319
0.00400358
0.00398601
0.00450042
0.00448711
0.00448259
0.00453316
0.00455606
0.00457993
0.00427649
0.00432515
0.0043724
0.00389299
0.00395749
0.00402139
0.00354298
0.00358754
0.00361362
0.00328812
0.00331304
0.00334496
0.00319071
0.00319253
0.00320246
0.0032812
0.0032598
0.00324724
0.00355999
0.00351743
0.00348533
0.00372609
0.00374561
0.00376529
0.0034865
0.00349703
0.00350818
0.00322155
0.00322174
0.00322247
0.00287973
0.00287082
0.00286209
0.00234769
0.00233137
0.00231505
0.00143081
0.00141388
0.0013972
0.000273318
0.000271066
0.000268832
2.62208e-05
4.35501e-05
5.5119e-05
5.4932e-05
7.00649e-05
7.55293e-05
8.02514e-05
8.44329e-05
8.82009e-05
9.16381e-05
9.48022e-05
9.77354e-05
0.00010047
0.000103034
0.000105447
0.000107728
0.000109893
0.000111957
0.000113931
0.000115827
0.000117656
0.000119426
0.000121148
0.00012283
0.000124479
0.000126105
0.000127715
0.000129316
0.000130916
0.000132522
0.000134143
0.000135787
0.000137462
0.000139177
0.000140942
0.000142769
0.00014467
0.000146661
0.000148758
0.000150983
0.000153351
0.000155793
0.000158309
0.000160898
0.000163561
0.000166301
0.00016912
0.00017202
0.000175001
0.000178061
0.000181199
0.00018441
0.000187688
0.000191022
0.000194399
0.0001978
0.000201198
0.000204558
0.000207831
0.00021095
0.000213827
0.000216342
0.000218335
0.000219605
0.000219959
0.000219269
0.000217507
0.00021462
0.0002105
0.000204943
0.000197784
0.000188671
0.000177686
0.000165192
0.000151641
0.000138885
0.000126135
0.000112703
9.73039e-05
6.57513e-05
4.3087e-05
0.000123959
0.000142263
0.000160429
0.000183804
0.00021122
0.000240839
0.000271933
0.000303825
0.000335962
0.000367899
0.000399304
0.000429941
0.000459654
0.00048835
0.000515982
0.000542535
0.00056802
0.000592466
0.000615917
0.000638424
0.000660046
0.000680848
0.000700898
0.000720264
0.000739018
0.000757229
0.000774964
0.000792289
0.000809264
0.000825946
0.000842384
0.000858619
0.00087468
0.000890582
0.000906324
0.000921885
0.000937226
0.000952189
0.000966658
0.000980788
0.000996287
0.00101249
0.00102933
0.0010468
0.00106493
0.00108373
0.00110322
0.00112337
0.00114419
0.00116563
0.00118763
0.0012101
0.00123292
0.00125592
0.00127887
0.00130147
0.00132332
0.0013439
0.00136253
0.00137834
0.00139012
0.00139632
0.00139494
0.00138441
0.00136712
0.00134275
0.00131058
0.00126955
0.00121604
0.00115156
0.00107237
0.000982556
0.000880424
0.0007462
0.000573031
0.000415719
0.000295602
0.000209169
7.03238e-05
5.26445e-05
0.000183655
0.000222064
0.000261928
0.000313008
0.000373163
0.000439502
0.000509693
0.000581778
0.000654233
0.000725929
0.000796091
0.000864212
0.000929989
0.000993258
0.00105395
0.00111207
0.00116765
0.00122076
0.0012715
0.00131996
0.00136626
0.00141051
0.00145283
0.00149334
0.00153215
0.00156939
0.00160515
0.00163956
0.00167271
0.00170469
0.0017356
0.0017655
0.00179447
0.00182257
0.00184985
0.00187634
0.00190207
0.00192704
0.00195124
0.00197467
0.00199784
0.00202224
0.00204711
0.00207226
0.0020976
0.00212306
0.00214854
0.00217391
0.00219901
0.00222361
0.00224746
0.00227023
0.0022915
0.0023108
0.00232755
0.00234106
0.00235055
0.0023551
0.0023537
0.00234518
0.0023283
0.00230167
0.00223948
0.00204952
0.00188929
0.00177048
0.00169307
0.00166293
0.00169
0.00170671
0.00158883
0.00146648
0.00133315
0.00117046
0.000937435
0.000680833
0.000456249
0.000284161
7.30815e-05
5.82667e-05
0.000232912
0.000303377
0.000371691
0.000455901
0.000552607
0.0006583
0.000768914
0.000881366
0.000993402
0.00110346
0.00121054
0.00131403
0.00141361
0.00150911
0.0016005
0.00168783
0.00177117
0.00185064
0.00192637
0.00199849
0.00206716
0.00213252
0.00219471
0.00225389
0.00231018
0.00236373
0.00241466
0.00246309
0.00250914
0.00255292
0.00259453
0.00263405
0.00267158
0.0027072
0.00274096
0.00277293
0.00280314
0.00283163
0.00285841
0.00288347
0.00290677
0.00292944
0.00295187
0.00297343
0.00299384
0.00301289
0.00303036
0.00304599
0.00305947
0.00307044
0.00307845
0.00308302
0.00308356
0.0030794
0.00306981
0.00305397
0.00303098
0.00299991
0.00295983
0.00290983
0.00284913
0.00277712
0.00269345
0.00251102
0.00227084
0.00208217
0.00194471
0.00185946
0.00183579
0.00185865
0.00172975
0.00160296
0.00147576
0.00133304
0.00112578
0.000852637
0.000572096
0.000329923
7.24101e-05
6.2064e-05
0.00027947
0.000384976
0.000486101
0.000605108
0.000738913
0.000882171
0.00103006
0.00117883
0.00132589
0.00146955
0.00160877
0.00174295
0.0018718
0.00199523
0.00211324
0.00222591
0.00233336
0.00243573
0.00253318
0.00262587
0.00271396
0.00279762
0.00287698
0.00295222
0.00302347
0.00309087
0.00315454
0.00321461
0.00327119
0.00332438
0.00337428
0.00342095
0.00346449
0.00350494
0.00354238
0.00357683
0.00360833
0.0036369
0.00366252
0.00368519
0.00370484
0.00372141
0.00373661
0.00374969
0.00376022
0.00376788
0.00377237
0.00377335
0.00377046
0.00376325
0.00375121
0.00373376
0.00371023
0.00367988
0.00364189
0.00359539
0.00353947
0.0034732
0.00339573
0.00330632
0.00320443
0.00308986
0.00296281
0.00282403
0.0026747
0.00251731
0.00235549
0.00217633
0.00203254
0.00188189
0.00173833
0.00160605
0.0014856
0.00136677
0.00120743
0.000951354
0.000648082
0.000354897
7.02386e-05
6.47205e-05
0.000319232
0.000465797
0.000601762
0.000755254
0.000923583
0.00110067
0.00128115
0.00146112
0.00163796
0.00181003
0.00197636
0.00213644
0.00229006
0.00243717
0.00257782
0.00271214
0.00284025
0.00296233
0.00307853
0.00318903
0.00329398
0.00339356
0.00348792
0.00357721
0.00366156
0.00374111
0.00381599
0.00388629
0.00395212
0.00401357
0.00407071
0.0041236
0.0041723
0.00421685
0.00425729
0.00429364
0.0043259
0.00435409
0.00437817
0.00439814
0.00441394
0.00442551
0.00443312
0.00443793
0.00443915
0.00443635
0.00442918
0.00441729
0.00440028
0.00437768
0.00434897
0.00431351
0.00427059
0.0042194
0.00415905
0.00408856
0.00400692
0.00391309
0.00380609
0.00368509
0.00354949
0.0033991
0.00323423
0.00305599
0.00286654
0.00266936
0.00246912
0.00227113
0.00208071
0.00190227
0.00173865
0.00159166
0.00146231
0.0013466
0.00121657
0.00100743
0.000705733
0.000373214
6.74202e-05
6.67805e-05
0.000355235
0.00054479
0.000715866
0.000901848
0.00110112
0.00130751
0.00151568
0.00172182
0.00192348
0.00211917
0.00230806
0.00248975
0.00266412
0.00283116
0.00299098
0.00314371
0.00328951
0.00342854
0.00356098
0.00368698
0.00380671
0.00392032
0.00402797
0.0041298
0.00422595
0.00431653
0.00440166
0.00448143
0.00455595
0.00462528
0.00468947
0.00474859
0.00480266
0.00485171
0.00489576
0.0049348
0.00496884
0.00499786
0.00502185
0.00504076
0.00505454
0.00506312
0.0050664
0.00506576
0.00506073
0.00505089
0.0050359
0.00501542
0.00498905
0.00495634
0.00491676
0.00486967
0.00481432
0.00474984
0.00467524
0.0045894
0.00449113
0.00437914
0.00425215
0.00410898
0.00394866
0.00377061
0.0035749
0.00336248
0.0031356
0.00289808
0.00265553
0.00241487
0.00218361
0.00196854
0.00177397
0.00160007
0.00144858
0.00131883
0.00119496
0.00102372
0.000737031
0.000381161
6.57421e-05
6.85913e-05
0.000388531
0.000621469
0.000826767
0.0010424
0.0012686
0.00149978
0.00173095
0.00195864
0.00218065
0.00239571
0.00260317
0.00280274
0.00299437
0.00317811
0.00335411
0.00352249
0.00368343
0.00383709
0.00398362
0.00412318
0.00425594
0.00438202
0.00450159
0.00461477
0.00472169
0.00482248
0.00491723
0.00500604
0.005089
0.00516616
0.00523758
0.0053033
0.00536334
0.00541771
0.00546642
0.00550945
0.0055468
0.00557844
0.00560436
0.00562451
0.00563886
0.00564736
0.00564996
0.00564679
0.00563892
0.00562579
0.00560706
0.00558238
0.00555141
0.00551374
0.00546886
0.00541614
0.00535485
0.00528407
0.00520275
0.00510965
0.00500337
0.00488234
0.0047449
0.00458938
0.00441419
0.00421803
0.00400018
0.00376083
0.00350152
0.00322556
0.00293862
0.00264893
0.00236616
0.0020999
0.00185638
0.00164164
0.00145751
0.00130109
0.0011545
0.000956008
0.000708807
0.000387324
6.51641e-05
7.03776e-05
0.000420345
0.000696194
0.000934131
0.00117622
0.00142529
0.0016769
0.00192673
0.00217175
0.00241012
0.00264082
0.00286335
0.00307756
0.00328344
0.0034811
0.00367068
0.00385232
0.00402619
0.00419242
0.00435118
0.00450259
0.00464682
0.00478399
0.00491425
0.00503772
0.00515452
0.00526478
0.0053686
0.00546606
0.00555724
0.00564221
0.00572102
0.0057937
0.00586026
0.00592072
0.00597506
0.00602328
0.00606534
0.00610122
0.00613089
0.00615431
0.00617143
0.0061822
0.00618654
0.00618433
0.00617675
0.00616351
0.00614436
0.00611903
0.00608724
0.00604862
0.00600275
0.00594906
0.00588685
0.00581524
0.00573317
0.00563934
0.00553224
0.00541009
0.0052709
0.00511249
0.0049326
0.00472907
0.00450003
0.00424435
0.0039621
0.00365529
0.00332811
0.00298878
0.00264753
0.0023157
0.00200694
0.00173323
0.00150005
0.00130473
0.00109083
0.000922522
0.000703982
0.000407385
6.61515e-05
7.23278e-05
0.00045228
0.0007703
0.00103895
0.00130419
0.00157216
0.00184006
0.00210448
0.00236298
0.00261412
0.00285712
0.00309165
0.00331763
0.00353511
0.00374422
0.00394508
0.00413782
0.0043226
0.00449954
0.00466877
0.00483043
0.00498466
0.00513158
0.00527132
0.00540401
0.00552978
0.00564873
0.00576096
0.00586657
0.00596564
0.00605822
0.00614437
0.00622413
0.0062975
0.00636449
0.0064251
0.0064793
0.00652705
0.00656832
0.00660307
0.00663124
0.0066528
0.00666766
0.00667575
0.00667696
0.00667179
0.0066607
0.00664349
0.00661998
0.00658994
0.00655313
0.00650918
0.00645765
0.00639793
0.00632925
0.00625062
0.00616079
0.00605826
0.00594117
0.00580737
0.00565436
0.00547937
0.00527941
0.00505151
0.00479298
0.00450192
0.00417791
0.00382314
0.0034428
0.00304564
0.00264529
0.00225886
0.00190485
0.00159816
0.00134387
0.00110322
0.000884621
0.000707107
0.00044754
6.9792e-05
7.47362e-05
0.00048675
0.000846195
0.00114359
0.00142873
0.00171168
0.00199186
0.00226703
0.00253544
0.00279604
0.00304829
0.00329201
0.00352717
0.00375383
0.0039721
0.00418207
0.00438388
0.00457763
0.00476344
0.00494143
0.00511171
0.00527442
0.00542968
0.00557762
0.00571836
0.00585203
0.00597873
0.00609857
0.00621164
0.00631802
0.00641777
0.00651093
0.00659756
0.00667766
0.00675125
0.00681831
0.00687881
0.00693273
0.00698001
0.00702059
0.0070544
0.00708139
0.00710148
0.00711457
0.00712057
0.00711938
0.00711196
0.0070982
0.00707802
0.00705131
0.00701793
0.00697763
0.0069301
0.00687489
0.00681136
0.00673871
0.00665583
0.00656136
0.00645355
0.00633028
0.00618898
0.00602664
0.00583982
0.00562473
0.00537741
0.00509406
0.00477172
0.00440879
0.00400662
0.0035706
0.00311159
0.0026465
0.00219792
0.00179108
0.0014452
0.00116549
0.000887275
0.000698524
0.000490068
7.70239e-05
7.78861e-05
0.000526
0.000879309
0.00123205
0.00155404
0.00184797
0.00213638
0.00241853
0.00269339
0.00296031
0.00321895
0.0034692
0.00371103
0.0039445
0.00416967
0.00438661
0.00459539
0.00479611
0.00498886
0.00517375
0.0053509
0.00552043
0.00568247
0.00583715
0.00598459
0.00612491
0.00625823
0.00638465
0.00650425
0.00661711
0.0067233
0.00682286
0.00691583
0.00700224
0.00708208
0.00715536
0.00722206
0.00728214
0.00733554
0.0073822
0.00742201
0.00745488
0.0074807
0.00749936
0.00751073
0.00751462
0.00751178
0.00750232
0.0074863
0.00746372
0.00743457
0.00739874
0.00735608
0.00730629
0.00724897
0.00718349
0.00710901
0.00702439
0.00692814
0.00681836
0.00669267
0.00654817
0.00638135
0.00618813
0.00596388
0.00570353
0.00540192
0.00505438
0.0046576
0.00421115
0.00371956
0.0031946