/*--------------------------------*- C++ -*----------------------------------*\
| =========                 |                                                 |
| \\      /  F ield         | OpenFOAM: The Open Source CFD Toolbox           |
|  \\    /   O peration     | Version:  v2012                                 |
|   \\  /    A nd           | Website:  www.openfoam.com                      |
|    \\/     M anipulation  |                                                 |
\*---------------------------------------------------------------------------*/
FoamFile
{
    version     2.0;
    format      ascii;
    class       volScalarField;
    location    "504";
    object      omega;
}
// * * * * * * * * * * * * * * * * * * * * * * * * * * * * * * * * * * * * * //

dimensions      [0 0 -1 0 0 0 0];


internalField   nonuniform List<scalar> 
6556
(
655.777
235.039
202.913
199.127
201.659
201.659
199.127
202.913
235.039
655.777
483.973
201.26
165.227
158.765
159.156
159.156
158.765
165.227
201.26
483.973
382.98
171.209
138.594
131.269
130.358
130.358
131.269
138.594
171.209
382.98
318.16
147.227
118.788
111.47
109.914
109.914
111.469
118.788
147.227
318.16
273.513
128.458
103.574
96.6061
94.7821
94.7821
96.6061
103.573
128.458
273.513
240.981
113.678
91.6012
85.084
83.184
83.184
85.0839
91.6011
113.678
240.981
216.197
101.872
81.9896
75.9207
74.0376
74.0376
75.9207
81.9895
101.872
216.197
196.631
92.2867
74.1388
68.4797
66.6547
66.6547
68.4796
74.1387
92.2865
196.632
180.741
84.3789
67.6279
62.3307
60.5796
60.5795
62.3306
67.6278
84.3785
180.741
167.534
77.7572
62.1546
57.1733
55.4993
55.4993
57.1732
62.1544
77.7567
167.535
156.349
72.1375
57.4976
52.7919
51.1925
51.1924
52.7917
57.4972
72.1367
156.35
146.728
67.3101
53.492
49.0277
47.498
47.4979
49.0274
53.4914
67.3089
146.729
138.344
63.1188
50.0133
45.7618
44.2962
44.2961
45.7613
50.0124
63.117
138.347
130.959
59.4449
46.9657
42.9032
41.4964
41.4962
42.9026
46.9643
59.4422
130.963
124.393
56.1972
44.2748
40.3817
39.0285
39.0281
40.3808
44.2728
56.1932
124.399
118.509
53.3047
41.8821
38.1419
36.8376
36.8371
38.1405
41.8793
53.2991
118.517
113.199
50.7114
39.7411
36.1397
34.8803
34.8796
36.1376
39.7371
50.704
113.21
108.379
48.3729
37.8144
34.3397
33.1216
33.1206
34.3366
37.8092
48.3648
108.393
103.979
46.2532
36.0718
32.7133
31.5332
31.5318
32.7089
36.0646
46.246
103.997
99.9446
44.3235
34.4884
31.2368
30.0918
30.0898
31.2303
34.4784
44.3312
99.9636
96.228
42.5601
33.0441
29.8911
28.7782
28.7748
29.8773
32.9917
42.109
83.8935
92.7905
40.9434
31.7219
28.6598
27.5762
27.5699
28.631
31.5917
39.916
71.0163
89.599
39.457
30.5078
27.5293
26.4722
26.4611
27.4761
30.2666
37.7381
60.9661
86.625
38.0869
29.3896
26.4881
25.4546
25.4367
26.4018
29.013
35.417
53.0701
83.8442
36.8211
28.3573
25.5264
24.5136
24.4876
25.4027
27.7893
33.0822
46.8817
81.2353
35.6495
27.402
24.6357
23.6409
23.6048
24.4727
26.587
30.9542
42.081
78.7797
34.5635
26.5164
23.809
22.8292
22.78
23.5877
25.4746
29.1378
38.3446
76.4608
33.5561
25.6942
23.0399
22.0722
22.0067
22.7485
24.4389
27.6197
35.4053
74.2639
32.6213
24.9302
22.3235
21.3647
21.2802
21.9547
23.4798
26.3216
32.9284
72.1758
31.7536
24.2199
21.6552
20.7022
20.5966
21.2053
22.5926
25.1806
30.7437
70.1843
30.9489
23.5596
21.0314
20.0811
19.9525
20.4983
21.7703
24.153
28.8135
68.2784
30.2038
22.9464
20.4489
19.4982
19.3452
19.8315
21.0035
23.1959
27.0985
66.4477
29.5155
22.3778
19.9053
18.951
18.7722
19.2017
20.2825
22.2909
25.5646
64.6825
28.8819
21.8523
19.3988
18.4376
18.2317
18.606
19.5994
21.427
24.181
62.9736
28.3016
21.3686
18.928
17.9564
17.7218
18.0417
18.9482
20.597
22.9206
61.3123
27.7735
20.9265
18.4924
17.5067
17.2413
17.5066
18.3242
19.7964
21.7607
59.6901
27.297
20.5262
18.0919
17.0882
16.7897
16.999
17.7245
19.0226
20.6834
58.0985
26.8718
20.1686
17.7273
16.7011
16.3669
16.5184
17.1479
18.2752
19.6752
56.5296
26.4974
19.8549
17.3999
16.3466
15.9735
16.0649
16.5953
17.5556
18.7274
54.9752
26.1734
19.5871
17.1115
16.0264
15.6112
15.6402
16.0692
16.8675
17.8357
53.4275
25.8988
19.3673
16.865
15.7429
15.2823
15.2468
15.5738
16.2165
17.0003
51.8783
25.6718
19.1977
16.6632
15.4994
14.9899
14.8883
15.1145
15.6096
16.2248
50.3198
25.4896
19.0806
16.5098
15.2994
14.7378
14.5691
14.6973
15.0546
15.5156
48.7437
25.3485
19.0179
16.4085
15.1473
14.5302
14.294
14.3287
14.5595
14.8806
47.1414
25.2436
19.011
16.3631
15.0472
14.3719
14.068
14.0144
14.1311
14.3272
45.5034
25.169
19.0605
16.377
15.0037
14.2674
13.8957
13.7594
13.7746
13.8612
43.8192
25.1174
19.1659
16.4531
15.0209
14.221
13.7815
13.5676
13.4929
13.4852
42.0759
25.0804
19.3255
16.5936
15.1024
14.2368
13.7291
13.4415
13.2868
13.1985
40.2578
25.0481
19.5356
16.7988
15.2505
14.3177
13.741
13.3825
13.1553
12.9975
38.3438
25.0082
19.7898
17.0667
15.4657
14.4653
13.8188
13.3907
13.0963
12.877
36.3049
24.9438
20.0765
17.3904
15.7445
14.6781
13.9615
13.4648
13.1063
12.831
34.0967
24.8278
20.3747
17.7551
16.0765
14.9485
14.1636
13.5999
13.1804
12.8535
31.6476
24.5914
20.6333
18.1248
16.4356
15.2571
14.4104
13.7853
13.3107
12.941
28.7821
24.1275
20.766
18.4281
16.7652
15.561
14.6712
14.0012
13.492
13.0994
25.3841
23.264
20.6633
18.5721
16.987
15.799
14.9045
14.234
13.7215
13.3171
21.2777
21.4932
20.0411
18.4026
17.0103
15.9188
15.1017
14.4749
13.9802
13.5795
15.598
17.977
18.336
17.6044
16.6951
15.9127
15.2594
14.718
14.2689
13.8932
13.3266
12.9332
15.169
15.8791
15.9099
15.6726
15.3427
14.9959
14.6666
14.3673
12.9382
9.76952
11.9175
13.7954
14.9106
15.5082
15.7827
15.8467
15.8079
15.7298
13.7255
14.665
18.2433
22.2932
26.1355
28.7002
30.6329
32.2261
33.5299
34.5928
35.3212
20.7995
21.0993
21.7546
22.2841
22.6079
22.7072
22.5655
22.1292
21.6016
20.974
20.2449
19.4217
18.537
17.6095
16.6499
15.646
14.7137
13.8137
12.9113
11.9767
10.972
9.83451
8.43558
7.2607
44.1336
15.9049
9.30113
8.02438
7.66975
7.51185
7.39249
7.25901
7.08234
6.8678
6.63612
6.40796
6.19758
6.00891
5.84695
5.71871
5.64732
5.7927
6.08494
6.46578
6.87166
7.2179
7.40414
7.39139
11.2238
47.5971
20.703
10.2098
7.42752
6.50645
6.07286
5.79115
5.55698
5.32132
5.05808
4.80374
4.56461
4.34406
4.14606
3.97856
3.85214
3.78511
3.8359
4.02462
4.35806
4.82604
5.38027
5.93043
6.51798
12.2846
47.4799
24.6799
13.4982
8.81576
7.01956
6.19849
5.6957
5.31557
4.983
4.65975
4.354
4.07861
3.82404
3.59082
3.38863
3.22995
3.13056
3.12154
3.22526
3.46226
3.84917
4.37893
5.00566
5.8627
12.6713
45.6598
27.6703
16.167
10.8006
8.11868
6.76373
5.98149
5.42444
4.97834
4.5972
4.25237
3.94269
3.65658
3.38921
3.15133
2.95879
2.82828
2.78145
2.8352
3.0086
3.32393
3.7943
4.41515
5.4087
12.6926
43.136
29.0784
18.3889
12.4935
9.40381
7.57695
6.45101
5.68532
5.11124
4.65659
4.28046
3.94624
3.63513
3.33575
3.06
2.82992
2.66833
2.59412
2.61797
2.75304
3.01924
3.43729
4.03327
5.105
12.5116
40.2715
29.6842
20.1806
14.0772
10.5478
8.45217
7.06276
6.06494
5.33785
4.79257
4.36998
4.02285
3.70473
3.37596
3.05965
2.78342
2.58506
2.48683
2.49218
2.60492
2.83927
3.21772
3.78742
4.90422
12.2118
37.503
29.6709
21.3498
15.4567
11.6474
9.24193
7.6363
6.4931
5.64195
4.99659
4.51439
4.14496
3.82411
3.49481
3.14373
2.8115
2.56357
2.43765
2.42951
2.52861
2.74168
3.09056
3.63655
4.77625
11.825
34.948
29.2202
22.0388
16.5373
12.6473
10.0126
8.18899
6.88043
5.91972
5.21604
4.6978
4.30878
3.98933
3.66451
3.29472
2.91273
2.6154
2.45639
2.43031
2.51529
2.71004
3.03473
3.56198
4.72034
11.3895
32.6246
28.4167
22.4209
17.3315
13.4958
10.7281
8.73209
7.27107
6.1974
5.42689
4.8827
4.49277
4.18972
3.88417
3.51506
3.09629
2.73586
2.53337
2.48719
2.55918
2.73942
3.04764
3.57102
4.77798
10.9891
30.5259
27.4218
22.5164
17.8677
14.1772
11.3598
9.24254
7.65962
6.49127
5.6554
5.08124
4.69241
4.41745
4.156
3.81301
3.38239
2.95147
2.67847
2.59637
2.65361
2.82343
3.12369
3.65473
4.90425
10.5941
28.6425
26.3554
22.3598
18.1786
14.7002
11.8933
9.70275
8.03143
6.78996
5.90128
5.30434
4.91237
4.67158
4.47766
4.20244
3.7934
3.30759
2.91985
2.76578
2.79948
2.96098
3.2601
3.80223
5.05875
10.1896
26.9513
25.2737
21.9935
18.3318
15.0523
12.3103
10.097
8.37338
7.08407
6.16401
5.54462
5.15641
4.94607
4.82651
4.66644
4.34524
3.86459
3.35078
3.03375
3.00974
3.15528
3.45281
3.99526
5.19243
9.77833
25.4245
24.2018
21.5044
18.3295
15.2625
12.6226
10.4257
8.68064
7.36504
6.42847
5.80431
5.42014
5.2313
5.1713
5.13925
5.00442
4.64459
4.10309
3.57208
3.33965
3.42789
3.71381
4.24395
5.31995
9.40799
24.0363
23.1583
20.9434
18.1933
15.3667
12.8504
10.6962
8.95309
7.6285
6.68653
6.06431
5.68859
5.51593
5.48505
5.54115
5.60381
5.54736
5.22435
4.6621
4.06478
3.91559
4.12832
4.63371
5.55961
8.63744
22.7626
22.1506
20.3417
17.9506
15.3982
13.0031
10.9151
9.19419
7.8734
6.93103
6.31115
5.94221
5.78052
5.75711
5.83468
5.99255
6.18222
6.31213
6.23535
5.87882
5.32493
5.15133
5.45442
6.19457
8.2674
21.5828
21.1758
19.7073
17.645
15.3742
13.1105
11.1055
9.4167
8.10633
7.16112
6.53302
6.16694
6.0097
5.98605
6.04398
6.18434
6.40308
6.70177
7.04874
7.39154
7.69547
7.99791
8.51487
9.43437
10.5757
20.4804
20.2332
19.0546
17.2943
15.2801
13.2109
11.2815
9.63456
8.32849
7.37691
6.73414
6.35468
6.19199
6.16812
6.21857
6.31277
6.44625
6.63764
6.89229
7.21744
7.59666
8.0057
8.4141
8.84069
9.24615
19.4432
19.3204
18.3922
16.9128
15.1407
13.2865
11.4619
9.86148
8.55954
7.58903
6.91823
6.50817
6.32265
6.2912
6.34681
6.44963
6.57756
6.7217
6.88869
7.08857
7.33228
7.61307
7.88991
8.13022
8.28285
18.4637
18.4345
17.7217
16.4966
14.9641
13.3128
11.6723
10.1207
8.83173
7.83548
7.11573
6.6511
6.41366
6.34366
6.37901
6.47761
6.61267
6.76691
6.92886
7.09072
7.2478
7.39598
7.51817
7.56967
7.49255
17.539
17.575
17.0449
16.0522
14.7562
13.3048
11.8318
10.4301
9.15708
8.14767
7.3833
6.84515
6.52935
6.38738
6.36149
6.40905
6.50128
6.61782
6.74152
6.8551
6.94234
6.99025
6.98603
6.89803
6.68935
16.6713
16.7451
16.3646
15.5804
14.5069
13.2648
11.962
10.6962
9.53708
8.53804
7.73772
7.1467
6.74708
6.51901
6.41449
6.39164
6.41864
6.47132
6.52961
6.57443
6.589
6.56258
6.48985
6.36012
6.15324
15.867
15.9523
15.6868
15.0833
14.2159
13.1781
12.0599
10.939
9.88755
8.96096
8.1799
7.55603
7.09953
6.79677
6.61205
6.51901
6.48634
6.48864
6.50323
6.51026
6.49351
6.44302
6.35442
6.22637
6.05557
15.1358
15.2089
15.0229
14.5673
13.8835
13.0377
12.1011
11.1394
10.2113
9.36631
8.63497
8.03057
7.56005
7.21447
6.97214
6.81125
6.72294
6.68391
6.67071
6.662
6.64077
6.59671
6.52447
6.42114
6.28578
14.4885
14.5304
14.3897
14.0453
13.5154
12.8421
12.0775
11.2737
10.4787
9.73364
9.06954
8.50384
8.04393
7.68724
7.42161
7.23203
7.10534
7.029
6.99196
6.97291
6.95506
6.92644
6.87976
6.8107
6.71611
13.9346
13.933
13.8081
13.5377
13.1263
12.5977
11.9868
11.3321
10.6713
10.0373
9.45496
8.94326
8.51229
8.16423
7.89506
7.69562
7.55749
7.46945
7.41594
7.38648
7.37063
7.35539
7.33187
7.29731
7.24574
13.4799
13.4298
13.2994
13.0699
12.7399
12.322
11.8383
11.3153
10.7797
10.2557
9.76416
9.32103
8.93662
8.61576
8.3592
8.16342
8.02256
7.92882
7.87235
7.84313
7.82943
7.82357
7.81938
7.81028
7.7915
13.1252
13.0279
12.8799
12.6667
12.3857
12.0442
11.6559
11.2375
10.8071
10.3821
9.9782
9.60785
9.28
9.00035
8.77236
8.59478
8.46368
8.37452
8.32105
8.29596
8.29072
8.297
8.30664
8.3154
8.32057
12.8666
12.7272
12.5576
12.3464
12.0916
11.7976
11.4725
11.1277
10.7759
10.4292
10.0987
9.79348
9.52028
9.28363
9.08782
8.93469
8.82071
8.74277
8.69703
8.67859
8.68151
8.69948
8.72629
8.75645
8.78455
12.6969
12.5214
12.3316
12.1179
11.877
11.61
11.3229
11.0244
10.7238
10.4303
10.1518
9.89474
9.66397
9.46266
9.29312
9.15781
9.05656
8.98643
8.94438
8.92712
8.93097
8.9517
8.98478
9.02574
9.07017
12.6079
12.4023
12.1976
11.982
11.749
11.4984
11.2344
10.9634
10.6929
10.4302
10.1818
9.95279
9.74677
9.56599
9.41179
9.28471
9.18504
9.11187
9.06319
9.03632
9.02852
9.03698
9.05876
9.09085
9.13007
12.5931
12.3663
12.151
11.9337
11.707
11.4689
11.221
10.9679
10.7154
10.4695
10.2357
10.0184
9.82091
9.64528
9.49246
9.36269
9.25558
9.17013
9.10454
9.05718
9.02632
9.00982
9.00546
9.01127
9.02515
12.6563
12.4118
12.1868
11.9678
11.7463
11.5186
11.2842
11.0455
10.8063
10.5713
10.3449
10.1312
9.93315
9.75291
9.59162
9.44967
9.32688
9.22248
9.13523
9.0636
9.00573
8.9597
8.92391
8.89712
8.87791
12.7944
12.5342
12.2996
12.0773
11.8587
11.6387
11.4152
11.1889
10.9616
10.7365
10.5167
10.3055
10.1056
9.91895
9.74693
9.59028
9.4492
9.32345
9.21236
9.11497
9.03007
8.9563
8.89222
8.83643
8.78777
12.9989
12.7263
12.4823
12.2549
12.036
11.82
11.6041
11.3873
11.1703
10.9545
10.7422
10.5354
10.3362
10.1464
9.96725
9.79961
9.64399
9.50051
9.36901
9.24906
9.14006
9.04119
8.95152
8.8701
8.79624
13.2584
12.9803
12.7308
12.4997
12.2797
12.0655
11.8539
11.6434
11.4338
11.2258
11.0203
10.8189
10.6228
10.4335
10.252
10.079
9.91521
9.76086
9.61604
9.48063
9.35435
9.23682
9.12752
9.02594
8.93178
13.5854
13.314
13.0677
12.8383
12.6195
12.4071
12.1986
11.9927
11.7888
11.5872
11.3884
11.1933
11.0028
10.8178
10.6392
10.4675
10.3032
10.1468
9.99813
9.85737
9.72434
9.5988
9.48043
9.36888
9.26409
14.1085
13.871
13.6483
13.4355
13.2298
13.0295
12.8333
12.6405
12.4508
12.2643
12.0814
11.9026
11.7286
11.5599
11.3969
11.2403
11.0901
10.9466
10.8099
10.6798
10.5562
10.4388
10.3273
10.2214
10.121
15.6431
15.5531
15.46
15.3596
15.2555
15.1494
15.0417
14.9328
14.8231
14.7129
14.6029
14.4934
14.3849
14.278
14.1729
14.07
13.9694
13.8713
13.7755
13.682
13.5908
13.5015
13.4139
13.3278
13.2432
35.4423
36.1742
36.796
37.306
37.7165
38.0363
38.2727
38.4327
38.5228
38.5495
38.519
38.4376
38.3109
38.1447
37.9443
37.7147
37.4606
37.1861
36.8951
36.5912
36.2775
35.9567
35.6313
35.3033
34.9747
7.80135
8.05546
15.2423
12.7142
13.8614
12.3172
11.2313
10.8143
9.86233
9.34663
9.02526
8.23599
8.19953
7.77147
6.9259
7.19312
6.6737
5.9342
6.33033
5.88261
5.35825
5.86927
5.55453
5.2109
5.84829
5.62944
5.39765
6.13136
5.97064
5.8024
6.60328
6.48321
6.35213
7.1794
7.09949
7.00517
7.76229
7.72261
7.6697
8.31905
8.30853
8.28835
8.8061
8.82246
8.83402
9.1107
9.14843
9.18254
9.16956
9.21065
9.25233
9.04325
9.06526
9.0904
8.86608
8.85847
8.85427
8.74934
8.71518
8.68423
8.73586
8.68027
8.62825
8.85351
8.78029
8.7109
9.17605
9.09279
9.01317
10.0361
9.95493
9.87662
13.1696
13.0968
13.0241
34.6864
34.4005
34.1171
4.3638
5.52683
6.995
8.04907
8.89173
9.58521
10.1845
10.7151
11.1933
11.6295
12.0311
12.4033
12.7504
13.0757
13.3819
13.6714
13.9462
14.2081
14.4587
14.6993
14.9313
15.1561
15.3746
15.588
15.7973
16.0037
16.2079
16.4111
16.6141
16.818
17.0238
17.2324
17.4449
17.6626
17.8866
18.1185
18.3597
18.6123
18.8785
19.1609
19.4614
19.7713
20.0906
20.4192
20.7571
21.1048
21.4626
21.8307
22.209
22.5974
22.9956
23.4031
23.8191
24.2422
24.6708
25.1024
25.5336
25.96
26.3754
26.7713
27.1364
27.4555
27.7084
27.8696
27.9146
27.827
27.6034
27.237
26.7142
26.0089
25.1005
23.9439
22.5498
20.9642
19.2444
17.6256
16.0075
14.3029
12.3486
10.9428
9.10394
6.03914
6.72684
7.12908
7.33075
7.40697
7.40475
7.3643
7.30623
7.24212
7.17819
7.11771
7.06227
7.01251
6.96851
6.93009
6.89689
6.86851
6.84451
6.82448
6.80804
6.79485
6.7846
6.77704
6.77196
6.76919
6.76863
6.7702
6.77388
6.77973
6.78783
6.79834
6.8115
6.82762
6.84713
6.87054
6.89853
6.93187
6.97202
7.02031
7.0766
7.13189
7.18863
7.2472
7.3078
7.37062
7.43585
7.50371
7.5744
7.64815
7.7252
7.80577
7.8901
7.97836
8.0707
8.16717
8.26773
8.37212
8.47987
8.59014
8.70162
8.81245
8.9207
9.02562
9.12469
9.20131
9.23343
9.20755
9.11362
8.9231
8.67314
8.38096
8.06169
7.7684
7.71231
8.13397
8.74481
9.29136
9.63441
14.8589
11.1234
6.14658
6.2491
6.30704
6.26229
6.14349
5.98781
5.8249
5.6685
5.52498
5.39657
5.28339
5.18453
5.09866
5.0243
4.96
4.90443
4.85638
4.8148
4.77881
4.74761
4.72058
4.69715
4.67689
4.65944
4.64449
4.63183
4.6213
4.61277
4.60621
4.60158
4.59892
4.59831
4.59985
4.60371
4.61006
4.61914
4.63121
4.64659
4.66557
4.68846
4.71476
4.74218
4.77188
4.80435
4.83994
4.87905
4.9221
4.96954
5.02187
5.07962
5.14335
5.21365
5.29111
5.37635
5.46994
5.57239
5.68411
5.80533
5.93601
6.07573
6.22345
6.37739
6.53496
6.69243
6.84307
6.96886
7.05133
7.07042
7.00723
6.85434
6.5951
6.26455
5.9009
5.64076
5.74967
6.24187
7.01783
8.03316
15.4416
12.3113
6.06058
5.79534
5.67138
5.50588
5.31508
5.11488
4.9249
4.75292
4.6013
4.46975
4.35671
4.26016
4.17797
4.10811
4.04874
3.99825
3.95525
3.91856
3.88719
3.86032
3.83724
3.81741
3.80037
3.78574
3.77323
3.76262
3.75374
3.74646
3.74072
3.73647
3.73373
3.73252
3.73292
3.73502
3.73896
3.74489
3.753
3.7635
3.77666
3.79274
3.81208
3.83407
3.85849
3.88604
3.9172
3.95241
3.99219
4.03708
4.08765
4.14456
4.20848
4.28016
4.36038
4.44995
4.5497
4.66048
4.78308
4.9182
5.06638
5.22791
5.40262
5.58959
5.78665
5.99082
6.19869
6.39842
6.57241
6.69842
6.74946
6.70046
6.52624
6.20261
5.72496
5.27045
5.06869
5.29128
5.93788
7.13699
15.2998
13.1136
5.89961
5.40409
5.1808
4.96111
4.73947
4.52825
4.33678
4.16864
4.02386
3.90071
3.79684
3.70971
3.63686
3.57607
3.5254
3.48314
3.44789
3.41845
3.39383
3.37322
3.35594
3.34145
3.32932
3.31919
3.31078
3.30388
3.29834
3.29403
3.29088
3.28887
3.28798
3.28826
3.28976
3.29257
3.29681
3.30262
3.3102
3.31973
3.33147
3.34569
3.3627
3.38285
3.40554
3.43136
3.46079
3.49434
3.53251
3.57587
3.62504
3.68069
3.74356
3.81447
3.89428
3.98397
4.08454
4.19709
4.32276
4.46273
4.61814
4.79005
4.97931
5.18627
5.41049
5.65032
5.90342
6.16426
6.42198
6.65894
6.84738
6.94842
6.91274
6.6861
6.237
5.63297
5.09657
5.03057
5.48141
6.69102
14.841
13.6749
5.74241
5.08197
4.79876
4.55162
4.31932
4.10756
3.92112
3.76086
3.62532
3.51198
3.418
3.34056
3.27705
3.22515
3.18287
3.14851
3.12066
3.09812
3.07994
3.06531
3.05359
3.04427
3.03691
3.03119
3.02685
3.02368
3.02154
3.02032
3.01995
3.0204
3.02167
3.02379
3.02681
3.03083
3.03594
3.0423
3.05008
3.05947
3.07069
3.08402
3.09975
3.11819
3.13959
3.16377
3.19133
3.22276
3.25858
3.29935
3.34568
3.39825
3.45783
3.52524
3.60141
3.68739
3.78431
3.89346
4.01624
4.15421
4.30905
4.48256
4.67657
4.89284
5.13282
5.39744
5.6868
5.9992
6.32942
6.66633
6.98915
7.26166
7.42612
7.40105
7.09342
6.47301
5.7201
5.26489
5.43006
6.53041
14.2454
14.1102
5.61308
4.81992
4.49537
4.23315
3.99729
3.78847
3.60836
3.45618
3.32949
3.22526
3.14029
3.07159
3.01645
2.9725
2.93773
2.91043
2.88919
2.87285
2.86046
2.85124
2.84456
2.83993
2.83694
2.83527
2.83467
2.83496
2.83599
2.83767
2.83992
2.84271
2.84605
2.84996
2.85449
2.85972
2.86575
2.87271
2.88076
2.89009
2.90092
2.91349
2.92809
2.94503
2.96466
2.9869
3.01221
3.04105
3.07392
3.11136
3.15397
3.20242
3.25746
3.31991
3.39072
3.47096
3.56182
3.66469
3.78112
3.91291
4.06209
4.23101
4.42228
4.6388
4.88369
5.16006
5.47083
5.81806
6.20184
6.61812
7.05536
7.48919
7.87378
8.13281
8.11887
7.67006
6.80675
5.93196
5.77202
6.75116
13.8909
14.4928
5.51422
4.60585
4.24883
3.97688
3.74014
3.53505
3.3611
3.21629
3.09753
3.00135
2.92433
2.86334
2.81557
2.77863
2.75048
2.72943
2.71406
2.70324
2.69601
2.69163
2.68948
2.68908
2.69003
2.69203
2.69484
2.69828
2.70222
2.70655
2.71122
2.71619
2.72146
2.72703
2.73297
2.73933
2.74621
2.75373
2.76203
2.77129
2.78171
2.79354
2.80703
2.82248
2.84021
2.86054
2.88354
2.90969
2.93948
2.97343
3.01211
3.05618
3.10634
3.16342
3.22832
3.3021
3.38595
3.48125
3.58961
3.7129
3.85332
4.01349
4.1965
4.40598
4.64621
4.92205
5.23887
5.60223
6.01671
6.48518
7.00549
7.56964
8.16076
8.71619
9.0937
9.05426
8.36435
7.15897
6.48317
7.20665
13.7688
14.8702
5.44372
4.43013
4.04438
3.76459
3.52773
3.32626
3.15788
3.01964
2.90789
2.81882
2.74882
2.69462
2.65337
2.62263
2.60035
2.58485
2.57471
2.5688
2.5662
2.56616
2.56808
2.57149
2.57601
2.58135
2.58727
2.5936
2.60021
2.607
2.61392
2.62092
2.628
2.63516
2.64245
2.64992
2.65765
2.66574
2.67434
2.6836
2.69372
2.70492
2.71747
2.73165
2.74778
2.76622
2.78707
2.81076
2.83771
2.86844
2.90347
2.94342
2.98898
3.0409
3.10006
3.16746
3.24422
3.33167
3.43134
3.54505
3.67498
3.82377
3.99462
4.1915
4.41927
4.6839
4.99256
5.35383
5.77538
6.2672
6.83692
7.49385
8.23583
9.03465
9.80258
10.3293
10.23
9.16062
7.66772
7.85667
13.9774
15.2822
5.4002
4.28631
3.87249
3.58478
3.34756
3.14927
2.98586
2.85349
2.748
2.66529
2.60156
2.55342
2.51797
2.49275
2.47571
2.46514
2.45967
2.45816
2.45971
2.46358
2.46918
2.47606
2.48384
2.49223
2.50101
2.51002
2.51912
2.52823
2.53727
2.54622
2.55506
2.5638
2.57245
2.58108
2.58974
2.59853
2.60756
2.617
2.62702
2.63785
2.64974
2.66298
2.67786
2.69474
2.71387
2.73553
2.76013
2.78815
2.82007
2.85649
2.89802
2.94538
2.99938
3.06092
3.13106
3.21099
3.30211
3.4061
3.52496
3.66112
3.81764
3.99833
4.20808
4.45312
4.74141
5.08298
5.48983
5.97701
6.56064
7.25916
8.0869
9.04834
10.1175
11.178
11.9012
11.6155
9.7395
8.88259
14.7467
15.7911
5.3851
4.17074
3.72715
3.43021
3.19191
2.99624
2.83728
2.71023
2.61044
2.5335
2.47542
2.43274
2.40249
2.38221
2.36984
2.36369
2.3624
2.36484
2.37012
2.37752
2.38647
2.39651
2.40729
2.41851
2.42996
2.44149
2.45295
2.46427
2.47539
2.48625
2.49686
2.5072
2.5173
2.52719
2.53693
2.5466
2.5563
2.56618
2.5764
2.58719
2.5988
2.61151
2.6256
2.64142
2.65931
2.67949
2.70234
2.72828
2.75777
2.79135
2.82959
2.87315
2.92276
2.97924
3.04352
3.11668
3.19993
3.29475
3.40288
3.52644
3.66811
3.83127
4.02034
4.24112
4.50132
4.81112
5.18423
5.63846
6.19646
6.88618
7.73676
8.7799
10.0363
11.486
12.987
14.0318
13.4485
10.8309
16.2747
16.4567
5.41087
4.08333
3.60492
3.29658
3.05631
2.86271
2.70776
2.58563
2.49109
2.41942
2.36648
2.32871
2.30313
2.28725
2.27904
2.27683
2.27926
2.28524
2.2939
2.30451
2.31652
2.32949
2.34304
2.35692
2.3709
2.38482
2.39857
2.41205
2.42521
2.438
2.4504
2.46242
2.47407
2.48537
2.49638
2.50715
2.51779
2.52841
2.53917
2.55031
2.56206
2.5747
2.58851
2.60383
2.62099
2.64026
2.66197
2.68649
2.71426
2.74574
2.78147
2.82203
2.8681
2.92039
2.97972
3.04704
3.12339
3.21003
3.30841
3.4203
3.54792
3.69407
3.86242
4.05786
4.28706
4.5592
4.88705
5.28846
5.78816
6.41974
7.22755
8.26651
9.59479
11.2665
13.3009
15.5232
17.1121
15.5361
18.5064
17.43
5.45427
4.01832
3.50182
3.18009
2.93784
2.7466
2.59546
2.47792
2.38823
2.32137
2.27305
2.23965
2.21819
2.2062
2.20165
2.20292
2.20867
2.21783
2.22954
2.24309
2.25794
2.27362
2.2898
2.3062
2.3226
2.33885
2.35483
2.37044
2.38563
2.40036
2.41461
2.42838
2.44167
2.45452
2.46697
2.47907
2.4909
2.50257
2.51423
2.52609
2.5384
2.55143
2.56546
2.58079
2.59776
2.61669
2.63786
2.66161
2.68832
2.71841
2.75237
2.79072
2.83406
2.88302
2.93833
3.00079
3.0713
3.15091
3.24081
3.34245
3.45758
3.5884
3.73777
3.90949
4.10881
4.34304
4.62264
4.96272
5.38541
5.92332
6.62447
7.55837
8.82258
10.5432
12.8596
15.9069
19.6695
23.3246
22.2907
18.7331
5.65693
3.99312
3.42507
3.08177
2.83571
2.64764
2.50054
2.38736
2.30209
2.23952
2.19524
2.16564
2.14773
2.13909
2.13773
2.14205
2.15075
2.16277
2.17726
2.19354
2.21103
2.2293
2.24798
2.2668
2.28554
2.30405
2.3222
2.33991
2.35712
2.37379
2.3899
2.40545
2.42046
2.43494
2.44896
2.46255
2.47579
2.48877
2.50164
2.51458
2.52785
2.54169
2.55637
2.5722
2.58949
2.60858
2.62976
2.65331
2.67957
2.70891
2.74178
2.77862
2.81998
2.86641
2.91853
2.97704
3.04272
3.11642
3.19915
3.29205
3.39649
3.51414
3.64711
3.7982
3.97117
4.17132
4.4062
4.68682
5.0296
5.45952
6.01553
6.75958
7.79185
9.27365
11.462
14.7519
19.7833
27.9026
44.5743
14.3518
5.6094
3.98937
3.37286
3.00493
2.75107
2.56554
2.42419
2.3157
2.23457
2.17575
2.13491
2.10848
2.09355
2.08774
2.08912
2.09612
2.10745
2.12209
2.13917
2.158
2.17801
2.19875
2.21983
2.24098
2.26197
2.28264
2.30288
2.32259
2.34173
2.36026
2.37817
2.39546
2.41214
2.42825
2.44384
2.45899
2.47377
2.48826
2.50256
2.51686
2.53138
2.54639
2.56212
2.57885
2.59689
2.61659
2.63825
2.6621
2.68844
2.71759
2.74993
2.78589
2.8259
2.87047
2.92014
2.97549
3.03718
3.10595
3.18263
3.26815
3.36357
3.47016
3.58944
3.72332
3.87439
4.04615
4.24352
4.47354
4.74644
5.07747
5.48994
6.02058
6.72938
7.7179
9.16336
11.3752
14.861
20.4353
29.2629
10.6617
5.35716
3.95631
3.32574
2.9463
2.68705
2.50342
2.3681
2.26566
2.18899
2.13371
2.09587
2.07213
2.05971
2.05633
2.06012
2.06953
2.08329
2.10037
2.11989
2.14116
2.16358
2.18666
2.21002
2.23333
2.25638
2.279
2.30108
2.32255
2.34337
2.36351
2.38297
2.40175
2.41989
2.43745
2.4545
2.47116
2.48746
2.50348
2.51931
2.5351
2.55108
2.56747
2.58452
2.60248
2.62162
2.64229
2.66481
2.68937
2.71621
2.74562
2.77792
2.81346
2.85265
2.89592
2.94372
2.99652
3.05489
3.11947
3.19098
3.27018
3.35794
3.45521
3.56309
3.68286
3.81616
3.96523
4.13306
4.32373
4.54281
4.79805
5.10024
5.46438
5.91111
6.46795
7.16903
8.04965
9.13277
10.3941
11.6918
8.36797
5.02845
3.87635
3.27847
2.90632
2.64899
2.46726
2.33716
2.24174
2.17089
2.11979
2.08511
2.064
2.05397
2.05289
2.05897
2.07069
2.08677
2.10615
2.12798
2.15152
2.17614
2.20133
2.22663
2.25171
2.27634
2.30036
2.32372
2.34636
2.36825
2.38941
2.40984
2.42957
2.44865
2.46724
2.48546
2.50336
2.52097
2.53835
2.55558
2.57281
2.59022
2.60806
2.62654
2.64591
2.66639
2.6883
2.71195
2.73751
2.76516
2.79514
2.82773
2.86322
2.90195
2.94432
2.9907
3.04139
3.09688
3.15776
3.22467
3.2983
3.37933
3.46853
3.56674
3.67474
3.79351
3.92446
4.06941
4.23063
4.41093
4.61382
4.84363
5.10532
5.40386
5.74336
6.1258
6.54593
6.98519
7.40483
7.72928
6.80371
4.70842
3.78011
3.24595
2.89462
2.64685
2.46991
2.34359
2.25465
2.19158
2.14646
2.116
2.09816
2.09094
2.09244
2.10096
2.11503
2.13329
2.15472
2.17845
2.20377
2.23001
2.2566
2.283
2.30884
2.33389
2.35805
2.38134
2.40381
2.42553
2.44649
2.46672
2.48634
2.50555
2.5245
2.54323
2.56179
2.58019
2.59849
2.61674
2.63507
2.65366
2.67271
2.69248
2.71317
2.73506
2.75837
2.78332
2.81003
2.83867
2.86943
2.90253
2.93821
2.97674
3.0184
3.06346
3.11219
3.16497
3.22236
3.28503
3.35351
3.42836
3.51021
3.59992
3.69778
3.80413
3.92004
4.04669
4.18549
4.33764
4.50456
4.6879
4.88887
5.10744
5.34059
5.58319
5.82653
6.05281
6.23542
6.34948
5.74766
4.43608
3.71022
3.25049
2.9309
2.70065
2.53416
2.41517
2.33296
2.27834
2.24108
2.21626
2.20279
2.19926
2.20381
2.21475
2.23062
2.25022
2.2726
2.29693
2.32246
2.34853
2.37449
2.39977
2.42414
2.44705
2.46864
2.48915
2.50886
2.52799
2.54655
2.56471
2.58269
2.60066
2.61866
2.63671
2.65485
2.67309
2.69144
2.70996
2.72873
2.74789
2.76763
2.78816
2.80974
2.83265
2.85714
2.88331
2.91113
2.9407
2.97218
3.00573
3.04157
3.07989
3.12089
3.16475
3.21158
3.26175
3.31599
3.37483
3.43864
3.50785
3.58289
3.6642
3.75215
3.84711
3.94968
4.06067
4.18142
4.31187
4.45238
4.60382
4.76617
4.93846
5.11656
5.29399
5.46232
5.60997
5.72147
5.78113
5.10305
4.27041
3.71751
3.33484
3.05797
2.85746
2.71426
2.61281
2.54263
2.49587
2.46443
2.44427
2.43393
2.43187
2.4366
2.44663
2.46072
2.47781
2.49734
2.5185
2.54057
2.56284
2.5846
2.60517
2.62316
2.63881
2.65258
2.66517
2.67751
2.69057
2.70383
2.71735
2.73123
2.74564
2.76061
2.77612
2.79216
2.80873
2.8258
2.84339
2.86155
2.88034
2.89992
2.92046
2.94217
2.96532
2.99028
3.01693
3.04526
3.07535
3.10718
3.14079
3.17639
3.21413
3.25415
3.29658
3.34156
3.38936
3.44069
3.49581
3.55508
3.61883
3.68739
3.76105
3.84011
3.92481
4.01546
4.11245
4.21629
4.32733
4.44632
4.57402
4.71011
4.85318
4.99733
5.13859
5.27081
5.38548
5.47193
5.51966
4.81653
4.27878
3.87442
3.58035
3.36212
3.20396
3.09104
3.00666
2.9415
2.89187
2.85422
2.82775
2.81001
2.79956
2.7951
2.79563
2.80026
2.80814
2.81873
2.83128
2.84506
2.85934
2.87319
2.88598
2.89665
2.90568
2.91298
2.91869
2.92339
2.92801
2.93272
2.93782
2.94385
2.95168
2.96096
2.97147
2.98317
2.9961
3.01016
3.02531
3.0415
3.05874
3.07709
3.09665
3.1176
3.14018
3.16462
3.19061
3.21828
3.24766
3.27874
3.31159
3.34629
3.38277
3.42118
3.46174
3.50466
3.55033
3.59898
3.65039
3.70504
3.76324
3.82528
3.89141
3.9618
4.03662
4.11601
4.20013
4.28949
4.38493
4.48701
4.59552
4.70961
4.82767
4.94685
5.06367
5.17334
5.26941
5.34415
5.38997
4.85825
4.51059
4.23766
4.03936
3.88355
3.75223
3.63855
3.54366
3.46378
3.39666
3.34358
3.30248
3.27091
3.24714
3.22977
3.21771
3.21006
3.2061
3.20496
3.206
3.20854
3.21199
3.21575
3.21968
3.22424
3.22861
3.23217
3.23465
3.23577
3.23509
3.23354
3.23172
3.23018
3.22969
3.23053
3.23304
3.23774
3.24484
3.25401
3.26508
3.27791
3.29235
3.30835
3.32594
3.34528
3.36663
3.38947
3.41373
3.43944
3.46666
3.4955
3.5261
3.55838
3.59237
3.62821
3.666
3.70592
3.74837
3.79316
3.84046
3.89048
3.94298
3.99833
4.05676
4.11837
4.1833
4.25172
4.32406
4.40092
4.48269
4.56938
4.66071
4.75596
4.8538
4.95225
5.04863
5.13932
5.21967
5.28423
5.32767
5.15999
4.93794
4.75779
4.60369
4.4669
4.34684
4.23944
4.14337
4.05774
3.98298
3.92027
3.86762
3.82349
3.78653
3.75561
3.72976
3.70818
3.69015
3.675
3.66218
3.65115
3.64159
3.63338
3.62614
3.6197
3.61369
3.60803
3.60289
3.59815
3.59343
3.58861
3.58364
3.57845
3.57273
3.56738
3.56321
3.56091
3.56101
3.56382
3.56971
3.57818
3.58891
3.60171
3.61655
3.63356
3.65253
3.67275
3.69422
3.71694
3.74093
3.76626
3.79298
3.82117
3.85103
3.88261
3.91589
3.95092
3.98791
4.02706
4.06875
4.11267
4.15886
4.20739
4.25801
4.31079
4.36613
4.42423
4.48552
4.55024
4.61858
4.69053
4.7658
4.84375
4.92333
5.00305
5.0809
5.15426
5.21981
5.27375
5.31232
5.63182
5.46724
5.32321
5.19637
5.08141
4.97545
4.87663
4.78478
4.70062
4.62488
4.55705
4.49641
4.44226
4.39391
4.35063
4.31169
4.27656
4.24467
4.21552
4.18875
4.16403
4.14102
4.11942
4.09907
4.0798
4.06167
4.04511
4.03012
4.01646
4.00393
3.99238
3.98174
3.97195
3.96299
3.95503
3.94826
3.94269
3.93859
3.9369
3.93848
3.943
3.95006
3.9595
3.97135
3.98537
4.00058
4.01689
4.03429
4.05276
4.07232
4.093
4.11482
4.13786
4.16217
4.18785
4.21492
4.24348
4.27375
4.30577
4.33962
4.37537
4.41342
4.45344
4.49535
4.53933
4.5853
4.633
4.68279
4.73502
4.78981
4.84713
4.90674
4.9681
5.0304
5.09251
5.15295
5.20981
5.26075
5.30313
5.33427
6.20958
6.07054
5.94682
5.83407
5.73011
5.63309
5.54098
5.45293
5.37027
5.29366
5.2225
5.15588
5.09361
5.03578
4.9821
4.93207
4.88533
4.84154
4.80032
4.76132
4.72426
4.68885
4.65472
4.62206
4.59111
4.56222
4.53557
4.51103
4.48849
4.46789
4.44915
4.4322
4.417
4.40358
4.3921
4.38267
4.37536
4.37047
4.36825
4.36814
4.3702
4.37437
4.38096
4.38929
4.39855
4.4087
4.41973
4.43163
4.44441
4.45809
4.4727
4.48828
4.50486
4.52251
4.54125
4.56113
4.58219
4.6045
4.62814
4.65315
4.67958
4.7075
4.73696
4.76819
4.80119
4.83566
4.87179
4.90969
4.94929
4.99045
5.03315
5.0773
5.12256
5.16827
5.2136
5.25743
5.29842
5.3349
5.36504
5.38694
6.88881
6.7614
6.64016
6.52739
6.4248
6.32978
6.23841
6.14891
6.06204
5.97939
5.90108
5.82705
5.75719
5.69138
5.62932
5.57064