/*--------------------------------*- C++ -*----------------------------------*\
| =========                 |                                                 |
| \\      /  F ield         | OpenFOAM: The Open Source CFD Toolbox           |
|  \\    /   O peration     | Version:  v2012                                 |
|   \\  /    A nd           | Website:  www.openfoam.com                      |
|    \\/     M anipulation  |                                                 |
\*---------------------------------------------------------------------------*/
FoamFile
{
    version     2.0;
    format      ascii;
    class       volScalarField;
    location    "504";
    object      p;
}
// * * * * * * * * * * * * * * * * * * * * * * * * * * * * * * * * * * * * * //

dimensions      [0 2 -2 0 0 0 0];


internalField   nonuniform List<scalar> 
6556
(
0.392865
0.392257
0.391927
0.391788
0.391729
0.391729
0.391788
0.391927
0.392256
0.392864
0.392188
0.392016
0.391846
0.39174
0.391691
0.391691
0.39174
0.391846
0.392016
0.392188
0.391721
0.391736
0.391668
0.391594
0.391559
0.391559
0.391594
0.391668
0.391735
0.39172
0.391436
0.391492
0.391457
0.391402
0.391378
0.391377
0.391402
0.391456
0.391491
0.391435
0.391207
0.391268
0.391244
0.3912
0.39118
0.391179
0.391199
0.391243
0.391266
0.391206
0.390989
0.391045
0.391026
0.39099
0.390973
0.390972
0.390989
0.391024
0.391042
0.390987
0.390775
0.390824
0.390805
0.390773
0.390758
0.390757
0.390771
0.390801
0.39082
0.390771
0.390565
0.390606
0.390585
0.390556
0.390541
0.39054
0.390552
0.39058
0.3906
0.390559
0.390356
0.390391
0.390368
0.39034
0.390325
0.390323
0.390334
0.39036
0.390381
0.390347
0.390149
0.390177
0.390153
0.390125
0.39011
0.390107
0.390116
0.39014
0.390162
0.390134
0.389942
0.389965
0.38994
0.389911
0.389895
0.38989
0.389898
0.38992
0.389942
0.389919
0.389736
0.389756
0.389729
0.389699
0.389681
0.389674
0.389679
0.389699
0.389721
0.389702
0.389534
0.38955
0.389521
0.389489
0.389467
0.389457
0.389459
0.389476
0.389497
0.389481
0.389337
0.389349
0.389318
0.389282
0.389255
0.389239
0.389236
0.38925
0.38927
0.389257
0.389148
0.389157
0.389122
0.389079
0.389043
0.389018
0.389008
0.389018
0.389038
0.389028
0.388971
0.388977
0.388935
0.388881
0.388831
0.388792
0.388771
0.388775
0.388798
0.388794
0.388814
0.388816
0.388763
0.388692
0.388619
0.388556
0.388517
0.388515
0.388548
0.388558
0.388688
0.388683
0.388615
0.388516
0.388408
0.388306
0.388233
0.388221
0.388282
0.38833
0.388607
0.388596
0.388505
0.388364
0.388198
0.388027
0.387883
0.387831
0.387946
0.388184
0.388597
0.388576
0.388455
0.388255
0.388004
0.387723
0.387447
0.387324
0.387555
0.388272
0.388689
0.38866
0.388499
0.388222
0.387847
0.387387
0.386834
0.386271
0.385652
0.381697
0.388925
0.388892
0.388691
0.38833
0.387828
0.387192
0.386353
0.385174
0.384571
0.386797
0.389355
0.389324
0.389088
0.388647
0.388023
0.387241
0.386267
0.384781
0.382879
0.38467
0.390031
0.390008
0.389741
0.389222
0.388474
0.387527
0.386389
0.384717
0.381768
0.382154
0.391005
0.390995
0.390696
0.390097
0.389222
0.388097
0.386755
0.385003
0.381779
0.381293
0.392332
0.392338
0.392005
0.39132
0.39031
0.389004
0.387436
0.385545
0.38213
0.380576
0.394071
0.394095
0.393723
0.392939
0.391775
0.390261
0.388424
0.3863
0.38274
0.37986
0.396287
0.396329
0.395914
0.395013
0.393665
0.391901
0.389731
0.387235
0.383476
0.379467
0.39906
0.399122
0.398652
0.397614
0.396053
0.394
0.391449
0.388444
0.384343
0.379844
0.402475
0.402562
0.402021
0.400829
0.39903
0.396662
0.393726
0.390236
0.385726
0.380935
0.406618
0.406728
0.40611
0.404749
0.402689
0.399974
0.396632
0.392681
0.387853
0.382688
0.411587
0.411719
0.411015
0.409464
0.40711
0.404005
0.400199
0.395744
0.390588
0.384986
0.417497
0.417648
0.416844
0.415076
0.412386
0.408835
0.404488
0.39945
0.39381
0.387744
0.42447
0.424639
0.423717
0.421697
0.418622
0.41456
0.409592
0.403856
0.397566
0.390924
0.432636
0.43282
0.431761
0.429455
0.425943
0.421299
0.415618
0.409067
0.401948
0.39455
0.442136
0.442332
0.441117
0.438492
0.43449
0.429191
0.4227
0.41521
0.407084
0.398733
0.453113
0.453321
0.451934
0.44896
0.444423
0.438401
0.431011
0.422463
0.413167
0.403659
0.465712
0.465931
0.464358
0.461014
0.45591
0.449118
0.440757
0.431055
0.420451
0.40959
0.480065
0.480296
0.47853
0.474805
0.469117
0.46153
0.452162
0.441247
0.429244
0.416879
0.496288
0.496529
0.494564
0.490459
0.484193
0.475816
0.465443
0.453307
0.439873
0.425917
0.514457
0.514702
0.512538
0.508065
0.501244
0.492113
0.48078
0.467471
0.452641
0.437079
0.534595
0.534836
0.532474
0.527651
0.52032
0.510499
0.498291
0.483909
0.467786
0.450688
0.556662
0.556888
0.554326
0.549176
0.541387
0.530964
0.518001
0.502697
0.485449
0.466973
0.580548
0.58074
0.577969
0.572511
0.564324
0.553397
0.539823
0.523783
0.505634
0.486017
0.606061
0.60619
0.603191
0.597434
0.588902
0.577574
0.563542
0.546974
0.528182
0.507721
0.632926
0.632954
0.629692
0.62363
0.614795
0.603159
0.588819
0.571931
0.552766
0.53179
0.660782
0.66066
0.657084
0.650691
0.641578
0.629715
0.615201
0.598189
0.57891
0.557747
0.689185
0.688854
0.684897
0.678129
0.668748
0.656722
0.642153
0.625188
0.606024
0.58497
0.717603
0.716995
0.712577
0.705382
0.695738
0.683607
0.669087
0.652318
0.633463
0.612768
0.745407
0.74445
0.73949
0.731826
0.721938
0.709775
0.695411
0.678972
0.660589
0.640446
0.77184
0.77046
0.764906
0.756781
0.746719
0.734635
0.72056
0.704592
0.686824
0.667385
0.795964
0.794104
0.788011
0.779545
0.769466
0.757641
0.744036
0.728706
0.711694
0.693081
0.816579
0.814241
0.807876
0.799389
0.7896
0.778324
0.765443
0.750953
0.734853
0.717173
0.831794
0.829957
0.823896
0.815761
0.806672
0.796345
0.784511
0.771101
0.756078
0.73943
0.839738
0.839499
0.8351
0.828202
0.820436
0.811546
0.801124
0.78905
0.775264
0.759733
0.842092
0.842751
0.840869
0.836434
0.830831
0.823927
0.815289
0.804779
0.792348
0.777967
0.842397
0.84276
0.842529
0.840923
0.838086
0.833635
0.827127
0.818392
0.8074
0.794162
0.842381
0.842011
0.842217
0.842791
0.842671
0.840833
0.836655
0.829839
0.820341
0.808213
0.842996
0.842156
0.842251
0.84383
0.845793
0.846291
0.844141
0.838943
0.83076
0.819566
0.844102
0.843633
0.844052
0.846091
0.849032
0.85124
0.850942
0.84735
0.840847
0.831155
0.360206
0.363187
0.365069
0.366898
0.368493
0.369739
0.370515
0.370686
0.370345
0.369535
0.368292
0.366811
0.365207
0.363565
0.362072
0.360906
0.360163
0.359899
0.360157
0.360917
0.362053
0.363329
0.364407
0.364996
0.365191
0.36845
0.364728
0.364221
0.36516
0.366342
0.367418
0.368197
0.368475
0.368135
0.367264
0.366042
0.364624
0.36315
0.361744
0.360535
0.359615
0.359064
0.358933
0.359258
0.360024
0.361156
0.362503
0.363833
0.364778
0.365208
0.368764
0.365193
0.363999
0.364223
0.364933
0.365663
0.366195
0.366323
0.365958
0.365187
0.364141
0.362903
0.361597
0.360375
0.35936
0.358621
0.358205
0.358135
0.358424
0.35906
0.359999
0.361155
0.362401
0.363533
0.364317
0.367162
0.36408
0.362943
0.36305
0.363728
0.364416
0.364886
0.364961
0.364557
0.363769
0.362744
0.361557
0.360308
0.35915
0.358208
0.35754
0.357176
0.357125
0.357384
0.357933
0.358728
0.359696
0.360736
0.361755
0.362648
0.367417
0.363034
0.361375
0.361442
0.36228
0.363078
0.363625
0.36374
0.363372
0.362606
0.361579
0.360395
0.359174
0.358059
0.35716
0.356531
0.356191
0.356135
0.356351
0.356818
0.357495
0.358318
0.359197
0.360057
0.360935
0.368543
0.362769
0.360147
0.360045
0.360862
0.361744
0.362398
0.362608
0.36232
0.36161
0.360601
0.359425
0.358221
0.357134
0.356268
0.355672
0.355354
0.355296
0.355477
0.355872
0.356443
0.357138
0.357877
0.358571
0.359308
0.369066
0.362969
0.359807
0.35933
0.35988
0.360717
0.361388
0.361677
0.361477
0.360831
0.359848
0.358681
0.357495
0.356437
0.355605
0.355042
0.354748
0.354694
0.354849
0.355185
0.355664
0.356241
0.356847
0.357379
0.357954
0.369354
0.363689
0.360438
0.359415
0.359554
0.360204
0.36082
0.361106
0.360949
0.360354
0.359393
0.358234
0.357061
0.356027
0.355228
0.354701
0.354431
0.354384
0.354521
0.35481
0.355215
0.355694
0.356185
0.356584
0.357016
0.370486
0.365057
0.361753
0.360294
0.36006
0.36044
0.360901
0.361091
0.360883
0.36031
0.359346
0.358166
0.356984
0.355953
0.355172
0.354668
0.354418
0.35438
0.354507
0.354764
0.355114
0.355518
0.355919
0.356217
0.356525
0.372473
0.367133
0.363748
0.361988
0.361435
0.361532
0.361773
0.361799
0.361464
0.360773
0.359776
0.358532
0.357305
0.35624
0.355447
0.354946
0.354707
0.354677
0.3548
0.355039
0.355352
0.355702
0.356031
0.356253
0.356463
0.374996
0.369764
0.366342
0.364385
0.363558
0.363375
0.363391
0.363254
0.362783
0.361923
0.360778
0.359402
0.358065
0.356903
0.356046
0.355513
0.355267
0.355242
0.355369
0.355602
0.355897
0.356212
0.356489
0.356655
0.356781
0.377848
0.372768
0.369346
0.367273
0.366245
0.365836
0.365631
0.365298
0.36469
0.363727
0.362394
0.360866
0.359314
0.357969
0.356969
0.356343
0.356054
0.356027
0.356162
0.3564
0.356695
0.356998
0.357245
0.357362
0.357403
0.380907
0.375927
0.372516
0.370389
0.369243
0.368681
0.368309
0.367825
0.367068
0.365986
0.364605
0.362992
0.36114
0.359503
0.358252
0.357447
0.357052
0.356984
0.357121
0.35737
0.357679
0.357996
0.358241
0.358302
0.358204
0.384102
0.379087
0.375651
0.373482
0.372262
0.371599
0.371128
0.37057
0.369762
0.368652
0.367258
0.365616
0.363687
0.361662
0.360026
0.358888
0.358282
0.3581
0.358198
0.358446
0.358777
0.359136
0.359453
0.359478
0.358937
0.387435
0.382167
0.378599
0.37635
0.375043
0.374311
0.373799
0.373236
0.372471
0.371457
0.370139
0.368536
0.366728
0.364649
0.362556
0.360913
0.359843
0.359391
0.359394
0.359618
0.359938
0.360311
0.360697
0.360768
0.359451
0.391029
0.385259
0.381319
0.378839
0.3774
0.376603
0.376066
0.375529
0.374866
0.374057
0.373005
0.371607
0.369927
0.368078
0.365949
0.363936
0.362277
0.361108
0.360588
0.360668
0.360979
0.361328
0.36172
0.36217
0.362774
0.395064
0.388524
0.383933
0.381009
0.379326
0.378391
0.377798
0.377277
0.376738
0.376149
0.375387
0.374361
0.373071
0.371526
0.36993
0.368149
0.366306
0.364509
0.363074
0.362193
0.361893
0.362144
0.362904
0.364154
0.365776
0.399791
0.392177
0.386699
0.38311
0.380973
0.379763
0.379046
0.378516
0.378057
0.377614
0.377105
0.37646
0.37568
0.374805
0.373879
0.372881
0.371741
0.370738
0.369816
0.36884
0.368144
0.368008
0.368637
0.370368
0.373506
0.405623
0.396629
0.38996
0.385425
0.382581
0.380908
0.379941
0.379335
0.378892
0.378533
0.378204
0.377881
0.377565
0.37728
0.377094
0.377042
0.377118
0.37742
0.377844
0.378422
0.379264
0.38049
0.382038
0.384435
0.388102
0.413017
0.402376
0.394183
0.388364
0.384515
0.382123
0.380701
0.37986
0.379348
0.37903
0.378815
0.378693
0.378703
0.37886
0.379191
0.379777
0.380686
0.381937
0.383484
0.385298
0.387368
0.389648
0.392057
0.39463
0.39739
0.422423
0.409933
0.399916
0.392469
0.387278
0.383859
0.381713
0.380418
0.37966
0.379249
0.379081
0.379108
0.379331
0.379765
0.380424
0.381371
0.382693
0.384435
0.386516
0.388826
0.391321
0.393966
0.396662
0.399277
0.401697
0.434265
0.419809
0.40774
0.398353
0.391476
0.386689
0.383508
0.381487
0.38027
0.379599
0.379319
0.379357
0.379696
0.380323
0.381226
0.3824
0.38389
0.385777
0.388036
0.390514
0.393098
0.395748
0.3984
0.400949
0.403279
0.448882
0.432464
0.418218
0.406647
0.397764
0.391261
0.386702
0.383638
0.381681
0.380528
0.379964
0.379861
0.380158
0.38083
0.381867
0.38325
0.384942
0.386914
0.389147
0.391562
0.394056
0.396568
0.399049
0.401435
0.403644
0.466468
0.448226
0.431817
0.417933
0.406793
0.398251
0.391959
0.387502
0.384479
0.382549
0.381451
0.381001
0.381091
0.381665
0.38271
0.384202
0.386029
0.388048
0.390201
0.39248
0.394836
0.397193
0.399498
0.401705
0.403758
0.48702
0.467223
0.448826
0.432654
0.419132
0.408304
0.399957
0.39375
0.389301
0.386255
0.384312
0.383241
0.382885
0.383162
0.384055
0.385476
0.387222
0.389146
0.391206
0.393393
0.395636
0.39786
0.400022
0.402077
0.403985
0.510307
0.489333
0.469278
0.451027
0.435167
0.421941
0.411305
0.403032
0.396802
0.392274
0.389132
0.387106
0.385993
0.38568
0.386138
0.387201
0.38864
0.390361
0.392306
0.394394
0.396529
0.398645
0.400688
0.402614
0.404402
0.535872
0.51416
0.492896
0.472945
0.45499
0.439441
0.426432
0.415883
0.407575
0.401218
0.396508
0.393157
0.39092
0.389653
0.389306
0.389736
0.39072
0.392105
0.393786
0.395658
0.39762
0.399593
0.401505
0.403316
0.405011
0.563075
0.541069
0.519098
0.497945
0.478314
0.46072
0.445453
0.432587
0.422032
0.413586
0.406991
0.401967
0.398244
0.395623
0.394114
0.393675
0.394001
0.394825
0.396025
0.397503
0.399154
0.400879
0.402597
0.40425
0.405821
0.591166
0.569258
0.547062
0.525244
0.504461
0.485268
0.468056
0.453037
0.440252
0.429612
0.420937
0.413997
0.408531
0.404285
0.401209
0.399484
0.398893
0.398951
0.399461
0.400344
0.4015
0.40282
0.40421
0.405601
0.406943
0.619378
0.597876
0.575854
0.553853
0.53245
0.51218
0.493479
0.476649
0.461847
0.449097
0.43832
0.42936
0.422014
0.416053
0.411268
0.40778
0.405731
0.404763
0.404424
0.40453
0.40499
0.405709
0.406598
0.407577
0.40858
0.647019
0.626134
0.604566
0.582752
0.561175
0.54032
0.52062
0.50242
0.485955
0.471347
0.458612
0.447683
0.438434
0.4307
0.424295
0.419096
0.415175
0.412541
0.41096
0.41013
0.409773
0.409748
0.409981
0.410393
0.410904
0.673529
0.653386
0.632438
0.611041
0.589599
0.568536
0.548258
0.529118
0.511394
0.49527
0.480843
0.468128
0.457075
0.447588
0.439547
0.432822
0.42729
0.422907
0.419644
0.417334
0.415767
0.414791
0.414271
0.414037
0.413963
0.698508
0.679165
0.658908
0.638035
0.616891
0.59585
0.575285
0.555542
0.536912
0.519617
0.503808
0.489562
0.476896
0.465772
0.456123
0.44786
0.440881
0.435088
0.430332
0.426498
0.423536
0.421322
0.419686
0.418492
0.417631
0.721698
0.703166
0.6836
0.663262
0.642461
0.621538
0.600843
0.580706
0.561423
0.543235
0.526325
0.510814
0.496765
0.484192
0.473066
0.463335
0.454921
0.447736
0.441671
0.436618
0.432466
0.429059
0.42626
0.424019
0.422276
0.74295
0.725203
0.706276
0.686418
0.66592
0.645111
0.624327
0.603894
0.584104
0.565211
0.547415
0.530866
0.515659
0.501842
0.489424
0.478377
0.46865
0.460171
0.452851
0.446592
0.441285
0.436815
0.433075
0.429976
0.427424
0.762106
0.745075
0.726699
0.707232
0.686961
0.666211
0.645323
0.624621
0.604401
0.584919
0.56639
0.54898
0.532808
0.517945
0.504426
0.492246
0.481375
0.471758
0.463322
0.455981
0.44964
0.444198
0.439553
0.435608
0.432268
0.779153
0.762722
0.744746
0.725496
0.705287
0.684474
0.66341
0.642421
0.621798
0.601799
0.582645
0.564513
0.547537
0.531805
0.517368
0.504241
0.49241
0.481834
0.472454
0.464195
0.456972
0.450692
0.445261
0.440585
0.43657
0.793943
0.777945
0.760198
0.741052
0.720838
0.699909
0.678638
0.657365
0.636379
0.615936
0.596259
0.577534
0.559901
0.543462
0.528279
0.514381
0.501766
0.490404
0.480246
0.471228
0.463274
0.456297
0.450209
0.44492
0.44034
0.805743
0.789942
0.77227
0.753094
0.732783
0.711712
0.690234
0.668678
0.647343
0.626492
0.606355
0.587122
0.568944
0.55193
0.536153
0.521651
0.508429
0.496469
0.485727
0.476145
0.467652
0.460167
0.453602
0.447866
0.442865
0.818204
0.802673
0.785097
0.765898
0.745438
0.7241
0.702261
0.680268
0.658433
0.637034
0.616309
0.596459
0.577642
0.55998
0.543553
0.528409
0.514559
0.501991
0.490667
0.480539
0.471539
0.463587
0.456598
0.450485
0.445166
0.356691
0.35657
0.356559
0.363135
0.363102
0.367344
0.367974
0.373037
0.380951
0.377601
0.383758
0.39073
0.391936
0.395372
0.398648
0.39996
0.402112
0.403959
0.403727
0.4054
0.406818
0.405189
0.406723
0.408003
0.405484
0.406977
0.408232
0.405494
0.406929
0.408164
0.405613
0.406975
0.408163
0.405932
0.40721
0.408331
0.406449
0.407636
0.408683
0.40717
0.408276
0.409233
0.408111
0.409111
0.410003
0.409487
0.410269
0.410984
0.411422
0.411908
0.412373
0.413996
0.414085
0.414206
0.41705
0.416659
0.416372
0.420998
0.420035
0.419235
0.425448
0.423887
0.422535
0.429623
0.427505
0.425655
0.433346
0.430743
0.428456
0.436637
0.433617
0.430953
0.43877
0.435434
0.432484
0.440744
0.437079
0.433905
0.432611
0.432566
0.432467
0.432127
0.431277
0.429923
0.428192
0.42621
0.424088
0.421909
0.419733
0.417602
0.415544
0.413574
0.411702
0.409934
0.40827
0.406711
0.405253
0.403895
0.402633
0.401464
0.400383
0.399387
0.398474
0.397641
0.396885
0.396204
0.395597
0.395064
0.394603
0.394215
0.393901
0.393662
0.393499
0.393415
0.393413
0.3935
0.393679
0.393952
0.394324
0.394799
0.395388
0.396103
0.396946
0.397926
0.399048
0.400321
0.401753
0.403349
0.405116
0.407055
0.409167
0.411448
0.413888
0.416471
0.419173
0.421955
0.424768
0.427543
0.430197
0.432612
0.434618
0.43605
0.436859
0.437157
0.436869
0.435941
0.434477
0.432459
0.429954
0.427345
0.424974
0.423041
0.421841
0.421638
0.422493
0.42402
0.425386
0.426026
0.432726
0.432607
0.432458
0.431922
0.430885
0.429455
0.427711
0.425761
0.423694
0.421582
0.419475
0.41741
0.415411
0.413493
0.411665
0.409934
0.408302
0.406767
0.40533
0.403988
0.402738
0.401576
0.400501
0.399509
0.398596
0.397761
0.397001
0.396314
0.3957
0.395156
0.394682
0.394279
0.393948
0.393688
0.393503
0.393394
0.393365
0.393414
0.393549
0.393775
0.394098
0.394524
0.395055
0.395696
0.396457
0.397345
0.398367
0.399528
0.400836
0.402294
0.403906
0.405673
0.407595
0.409666
0.411877
0.414212
0.416647
0.41915
0.421674
0.424162
0.426545
0.42873
0.430598
0.432033
0.433013
0.433579
0.433627
0.432986
0.431599
0.429605
0.427196
0.424714
0.422525
0.420816
0.419821
0.419733
0.420664
0.422425
0.424367
0.425561
0.432855
0.432435
0.431879
0.430987
0.429751
0.428251
0.426536
0.424678
0.422734
0.420754
0.418776
0.41683
0.414936
0.41311
0.411362
0.409699
0.408123
0.406638
0.405241
0.403933
0.402711
0.401573
0.400516
0.399538
0.398637
0.397809
0.397054
0.396369
0.395752
0.395204
0.394724
0.394311
0.393966
0.393689
0.393484
0.39335
0.393293
0.393312
0.393412
0.393598
0.393873
0.394244
0.394715
0.395292
0.39598
0.396785
0.397715
0.398774
0.399967
0.401298
0.402771
0.404385
0.40614
0.40803
0.410045
0.41217
0.414385
0.416659
0.418955
0.421224
0.42341
0.425452
0.427268
0.428728
0.429752
0.430341
0.430431
0.429921
0.428807
0.427176
0.425148
0.422998
0.42107
0.419604
0.418743
0.418572
0.419146
0.420401
0.422066
0.423518
0.432313
0.431598
0.430729
0.429631
0.428302
0.426789
0.425133
0.423376
0.421556
0.419706
0.417857
0.416031
0.414248
0.412522
0.410863
0.409277
0.407771
0.406344
0.405
0.403736
0.402552
0.401446
0.400416
0.39946
0.398576
0.397761
0.397015
0.396335
0.39572
0.39517
0.394683
0.39426
0.393902
0.393608
0.39338
0.39322
0.393131
0.393114
0.393173
0.393312
0.393535
0.393847
0.394252
0.394754
0.395361
0.396077
0.396907
0.397858
0.398934
0.400138
0.401473
0.402941
0.40454
0.406265
0.408111
0.410063
0.412105
0.414212
0.416353
0.418488
0.420571
0.422554
0.424387
0.425967
0.427142
0.427825
0.427989
0.427599
0.426688
0.425359
0.423696
0.421844
0.420092
0.418718
0.41787
0.417618
0.417947
0.418763
0.419901
0.421151
0.430996
0.430116
0.429148
0.428004
0.426669
0.425188
0.423599
0.421934
0.420221
0.418486
0.416753
0.415041
0.413365
0.411739
0.410172
0.408671
0.407239
0.40588
0.404595
0.403384
0.402245
0.401179
0.400183
0.399255
0.398395
0.397599
0.396866
0.396196
0.395587
0.395038
0.394548
0.394118
0.393748
0.393438
0.393191
0.393006
0.392887
0.392835
0.392854
0.392948
0.393119
0.393373
0.393713
0.394144
0.394671
0.3953
0.396036
0.396883
0.397846
0.398929
0.400134
0.401463
0.402916
0.404489
0.406177
0.407969
0.409852
0.411805
0.413802
0.41581
0.417788
0.419688
0.42146
0.423027
0.424275
0.425113
0.425499
0.425408
0.424855
0.4239
0.422608
0.421072
0.419534
0.418264
0.417433
0.417107
0.417247
0.41776
0.418468
0.41941
0.429209
0.428219
0.427235
0.42611
0.424818
0.423401
0.421895
0.420327
0.418722
0.4171
0.415482
0.413882
0.412316
0.410793
0.409323
0.40791
0.406559
0.405274
0.404055
0.402902
0.401815
0.400794
0.399837
0.398943
0.39811
0.397337
0.396622
0.395965
0.395364
0.394818
0.394328
0.393893
0.393513
0.393189
0.392922
0.392713
0.392565
0.392479
0.392459
0.392507
0.392626
0.392823
0.393099
0.393459
0.393909
0.394452
0.395094
0.39584
0.396693
0.397657
0.398736
0.399931
0.401241
0.402666
0.4042
0.405835
0.407561
0.409361
0.411215
0.413093
0.414963
0.416784
0.418505
0.420063
0.421379
0.422392
0.423059
0.423345
0.423223
0.422705
0.421816
0.420636
0.419374
0.418269
0.417494
0.417117
0.417111
0.417388
0.417761
0.418339
0.426987
0.42599
0.425049
0.423979
0.422765
0.421441
0.420037
0.418579
0.41709
0.415587
0.414087
0.412604
0.41115
0.409733
0.408362
0.407042
0.405776
0.404568
0.403418
0.402328
0.401297
0.400324
0.39941
0.398552
0.39775
0.397002
0.396307
0.395664
0.395073
0.394533
0.394043
0.393604
0.393216
0.392879
0.392593
0.392362
0.392186
0.392066
0.392007
0.392011
0.392081
0.392221
0.392435
0.392727
0.393101
0.393562
0.394115
0.394763
0.39551
0.396362
0.397319
0.398385
0.39956
0.400843
0.40223
0.403716
0.405292
0.406945
0.408658
0.41041
0.412172
0.413913
0.415592
0.417161
0.418565
0.419754
0.420683
0.421311
0.421601
0.421534
0.421112
0.420389
0.419508
0.418663
0.418015
0.417624
0.417484
0.41753
0.417642
0.417917
0.424417
0.423483
0.422627
0.421651
0.420548
0.419343
0.418063
0.416733
0.415371
0.413996
0.41262
0.411258
0.409918
0.40861
0.40734
0.406114
0.404935
0.403805
0.402727
0.4017
0.400726
0.399803
0.398932
0.398112
0.397341
0.396619
0.395946
0.395319
0.394739
0.394205
0.393717
0.393275
0.392879
0.392529
0.392227
0.391974
0.391771
0.39162
0.391523
0.391485
0.391507
0.391593
0.391748
0.391976
0.39228
0.392663
0.393132
0.393689
0.394339
0.395086
0.395932
0.396879
0.39793
0.399083
0.400336
0.401686
0.403125
0.404645
0.406231
0.407868
0.409532
0.4112
0.412839
0.414414
0.415887
0.417219
0.418363
0.419285
0.419962
0.420353
0.420443
0.420239
0.419824
0.419321
0.418862
0.418474
0.418198
0.418059
0.417983
0.418019
0.421594
0.420747
0.42
0.419154
0.418198
0.417143
0.416014
0.414831
0.413613
0.412376
0.411132
0.409895
0.408673
0.407475
0.406307
0.405174
0.404081
0.403029
0.402021
0.401057
0.400139
0.399266
0.398437
0.397654
0.396914
0.396218
0.395565
0.394954
0.394385
0.393857
0.393371
0.392926
0.392523
0.392163
0.391845
0.391571
0.391343
0.391162
0.391031
0.390952
0.390929
0.390966
0.391066
0.391234
0.391472
0.391786
0.392178
0.392654
0.393216
0.393869
0.394616
0.395459
0.396399
0.397439
0.398576
0.399808
0.40113
0.402536
0.404016
0.405557
0.407142
0.408753
0.410364
0.411951
0.413488
0.41495
0.416262
0.417422
0.41844
0.419239
0.419803
0.42011
0.420186
0.420064
0.419807
0.419449
0.419075
0.41877
0.418536
0.41837
0.418504
0.417769
0.417168
0.416505
0.415745
0.414882
0.413936
0.412925
0.411868
0.410781
0.409677
0.408568
0.407465
0.406376
0.405308
0.404267
0.403256
0.402279
0.401338
0.400434
0.399569
0.398742
0.397954
0.397205
0.396495
0.395823
0.395189
0.394593
0.394034
0.393512
0.393028
0.39258
0.392171
0.391799
0.391467
0.391174
0.390922
0.390713
0.390549
0.390434
0.39037
0.390361
0.390411
0.390525
0.390705
0.390956
0.391281
0.391684
0.39217
0.392742
0.393404
0.394158
0.395006
0.39595
0.39699
0.398126
0.399354
0.40067
0.402067
0.403535
0.405063
0.406636
0.408235
0.409839
0.411425
0.412974
0.41448
0.415894
0.417164
0.41827
0.419229
0.419968
0.420459
0.420742
0.420726
0.420417
0.419962
0.419455
0.419017
0.418658
0.414985
0.414419
0.414072
0.413706
0.413223
0.412608
0.411885
0.411074
0.410197
0.40927
0.40831
0.407331
0.406345
0.405361
0.404389
0.403433
0.402499
0.401591
0.400712
0.399863
0.399045
0.398261
0.397509
0.396791
0.396107
0.395456
0.394839
0.394255
0.393704
0.393187
0.392704
0.392254
0.391838
0.391457
0.39111
0.3908
0.390526
0.390291
0.390097
0.389947
0.389845
0.389795
0.389801
0.389866
0.389995
0.390192
0.390459
0.390802
0.391223
0.391728
0.392319
0.392999
0.393773
0.394641
0.395605
0.396666
0.397822
0.399072
0.40041
0.401831
0.403325
0.404883
0.40649
0.40813
0.409786
0.411436
0.413063
0.414649
0.416183
0.41762
0.418904
0.419952
0.420797
0.421374
0.421591
0.421389
0.420818
0.420119
0.419301
0.418666
0.410685
0.410502
0.410626
0.410755
0.410685
0.410392
0.409933
0.409349
0.408664
0.407904
0.407088
0.406234
0.405359
0.404474
0.403588
0.402709
0.401844
0.400997
0.400171
0.399369
0.398593
0.397844
0.397123
0.396431
0.395768
0.395135
0.394531
0.393957
0.393413
0.392899
0.392416
0.391963
0.39154
0.391149
0.39079
0.390463
0.390169
0.389909
0.389686
0.389504
0.389368
0.389282
0.389249
0.389273
0.389358
0.389508
0.389727
0.390019
0.390388
0.390838
0.391372
0.391996
0.392711
0.393521
0.394429
0.395436
0.396543
0.397749
0.399051
0.400448
0.401932
0.403497
0.405132
0.406826
0.408563
0.410328
0.412101
0.413863
0.415589
0.417258
0.418871
0.420312
0.421531
0.422416
0.422872
0.422748
0.42196
0.420949
0.419672
0.418441
0.404516
0.405418
0.406659
0.407602
0.408153
0.408311
0.408166
0.407828
0.407343
0.406746
0.406066
0.405328
0.404551
0.403751
0.402939
0.402126
0.401318
0.40052
0.399738
0.398974
0.398231
0.39751
0.396813
0.396141
0.395494
0.394873
0.394279
0.393712
0.393172
0.392659
0.392174
0.391718
0.391289
0.390888
0.390517
0.390175
0.389863
0.38958
0.389328
0.389115
0.388948
0.38883
0.388764
0.388753
0.388801
0.388914
0.389093
0.389345
0.389672
0.390079
0.390571
0.391151
0.391824
0.392594
0.393463
0.394435
0.395512
0.396694
0.397982
0.399375
0.40087
0.402462
0.404144
0.405909
0.407744
0.409635
0.411568
0.413522
0.415474
0.417399
0.419266
0.421028
0.422679
0.424024
0.424879
0.425071
0.424502
0.422943
0.420175
0.417712
0.39514
0.399521
0.402445
0.404416
0.405723
0.406464
0.406709
0.406614
0.406311
0.405859
0.405296
0.404653
0.403955
0.403222
0.402468
0.401704
0.400938
0.400178
0.399428
0.398691
0.397971
0.39727
0.396589
0.39593
0.395294
0.394681
0.394092
0.393528
0.39299
0.392476
0.391989
0.391527
0.391092
0.390683
0.390302
0.389948
0.389619
0.389311
0.389028
0.388782
0.388585
0.388442
0.38835
0.388312
0.388331
0.388413
0.388562
0.388782
0.389078
0.389454
0.389915
0.390465
0.39111
0.391853
0.3927
0.393653
0.394716
0.395893
0.397184
0.398591
0.400114
0.40175
0.403496
0.405347
0.407294
0.409328
0.411436
0.413601
0.415803
0.418018
0.420214
0.422359
0.42442
0.426289
0.427789
0.428816
0.42985
0.429125
0.423205
0.415326
0.376327
0.391573
0.397875
0.401516
0.403673
0.404987
0.405654
0.405804
0.405644
0.405297
0.404817
0.40424
0.403595
0.402906
0.402189
0.401456
0.400717
0.399979
0.399248
0.398528
0.397821
0.397131
0.396458
0.395806
0.395174
0.394563
0.393976
0.393412
0.392873
0.392357
0.391865
0.391398
0.390956
0.390539
0.390149
0.389781
0.38943
0.389099
0.388795
0.388525
0.388297
0.388126
0.388012
0.387953
0.38795
0.388009
0.388135
0.388332
0.388605
0.38896
0.3894
0.389932
0.390561
0.391291
0.392127
0.393075
0.39414
0.395324
0.396633
0.398068
0.399631
0.401324
0.403146
0.405095
0.407166
0.409354
0.41165
0.414043
0.416519
0.419059
0.421643
0.424248
0.426855
0.429434
0.431954
0.434481
0.437228
0.439702
0.440373
0.444231
0.380337
0.390617
0.396431
0.400432
0.402815
0.404291
0.405149
0.405473
0.4054
0.405099
0.404653
0.404103
0.40348
0.402807
0.402104
0.401383
0.400654
0.399924
0.399199
0.398484
0.397781
0.397093
0.396421
0.395769
0.395136
0.394524
0.393934
0.393368
0.392824
0.392305
0.391808
0.391335
0.390886
0.390461
0.390056
0.389664
0.38929
0.388945
0.388633
0.388352
0.388104
0.387899
0.387756
0.387677
0.387659
0.387702
0.387812
0.387994
0.388253
0.388594
0.389024
0.389547
0.390169
0.390895
0.391733
0.392687
0.393763
0.394966
0.396302
0.397775
0.399389
0.401146
0.40305
0.405101
0.407299
0.409643
0.41213
0.414755
0.41751
0.420387
0.423375
0.426465
0.429649
0.432928
0.436332
0.439975
0.443979
0.44832
0.453811
0.46318
0.389118
0.395068
0.398966
0.401778
0.403551
0.404684
0.405372
0.405664
0.405594
0.405274
0.404806
0.404237
0.4036
0.402916
0.402204
0.401475
0.40074
0.400005
0.399276
0.398555
0.397847
0.397154
0.396477
0.395819
0.39518
0.394563
0.393968
0.393397
0.392849
0.392324
0.391823
0.391344
0.390887
0.390446
0.390014
0.389599
0.389213
0.388861
0.388542
0.388255
0.387999
0.387777
0.387602
0.387492
0.387456
0.38749
0.387591
0.387765
0.388017
0.388353
0.388779
0.389301
0.389925
0.390657
0.391504
0.392472
0.393568
0.394798
0.396168
0.397684
0.399352
0.401177
0.403163
0.405314
0.407634
0.410126
0.412792
0.415633
0.41865
0.421842
0.425211
0.42876
0.432494
0.436415
0.440563
0.444987
0.449664
0.45457
0.460064
0.466778
0.39622
0.399891
0.402429
0.404145
0.405233
0.405899
0.40625
0.40634
0.406179
0.405794
0.405252
0.404618
0.40393
0.40321
0.402469
0.401718
0.400963
0.400212
0.399468
0.398734
0.398014
0.39731
0.396623
0.395955
0.395307
0.394682
0.39408
0.393503
0.392951
0.392423
0.391919
0.39143
0.390949
0.390478
0.390026
0.389602
0.389212
0.388855
0.38853
0.388237
0.387978
0.387754
0.387567
0.38743
0.38736
0.387372
0.387467
0.387641
0.387894
0.388231
0.388661
0.389188
0.389821
0.390565
0.391428
0.392416
0.393538
0.394799
0.396207
0.397769
0.399492
0.401381
0.403445
0.405688
0.408118
0.410739
0.41356
0.416586
0.419826
0.42329
0.426982
0.430906
0.435054
0.439378
0.443864
0.448551
0.453411
0.458458
0.464018
0.470173
0.401575
0.403842
0.405453
0.406492
0.407111
0.407419
0.407484
0.407355
0.407051
0.406574
0.405939
0.405206
0.404439
0.403662
0.402878
0.402093
0.401311
0.400536
0.399771
0.39902
0.398284
0.397565
0.396865
0.396184
0.395526
0.39489
0.39428
0.393698
0.393144
0.392612
0.392088
0.391569
0.391058
0.39057
0.390113
0.389688
0.389295
0.388935
0.388607
0.388313
0.388053
0.387829
0.387646
0.387505
0.387416
0.387395
0.387459
0.387619
0.387876
0.388223
0.388664
0.389204
0.389851
0.390613
0.391497
0.39251
0.39366
0.394955
0.396402
0.398009
0.399783
0.401732
0.403864
0.406186
0.408706
0.411433
0.414376
0.417548
0.420963
0.424632
0.428534
0.432623
0.43689
0.441328
0.445898
0.450598
0.455489
0.460611
0.465999
0.471556
0.405612
0.406965
0.407913
0.408502
0.408801
0.408865
0.408737
0.408458
0.408047
0.407485
0.406756
0.405922
0.405072
0.404235
0.403405
0.402583
0.401769
0.400968
0.40018
0.399409
0.398655
0.39792
0.397206
0.396514
0.395845
0.395201
0.394582
0.393993
0.393426
0.392865
0.392305
0.391758
0.391239
0.39075
0.390292
0.389865
0.38947
0.389108
0.38878
0.388487
0.38823
0.38801
0.387832
0.387701
0.38762
0.387594
0.387635
0.387763
0.38799
0.388327
0.38878
0.38934
0.390008
0.390794
0.391703
0.392743
0.393925
0.395255
0.39674
0.398389
0.40021
0.40221
0.404399
0.406784
0.409373
0.412178
0.41521
0.418482
0.421994
0.425723
0.429646
0.433745
0.438008
0.442459
0.447099
0.451905
0.456864
0.461958
0.467146
0.472314
0.408037
0.408989