/*--------------------------------*- C++ -*----------------------------------*\
| =========                 |                                                 |
| \\      /  F ield         | OpenFOAM: The Open Source CFD Toolbox           |
|  \\    /   O peration     | Version:  v2012                                 |
|   \\  /    A nd           | Website:  www.openfoam.com                      |
|    \\/     M anipulation  |                                                 |
\*---------------------------------------------------------------------------*/
FoamFile
{
    version     2.0;
    format      ascii;
    class       surfaceScalarField;
    location    "504";
    object      phi;
}
// * * * * * * * * * * * * * * * * * * * * * * * * * * * * * * * * * * * * * //

dimensions      [0 3 -1 0 0 0 0];
oriented        oriented;


internalField   nonuniform List<scalar> 
12848
(
5.00773e-08
0.00019995
3.41752e-08
0.000200016
2.07371e-08
0.000200013
9.81088e-09
0.000200011
1.69472e-11
0.00020001
-9.77986e-09
0.00020001
-2.07142e-08
0.000200011
-3.41648e-08
0.000200013
-5.0075e-08
0.000200016
0.00019995
8.08844e-08
0.000199869
7.15364e-08
0.000200025
4.8598e-08
0.000200036
2.41576e-08
0.000200035
5.13133e-11
0.000200034
-2.40628e-08
0.000200034
-4.8526e-08
0.000200035
-7.14993e-08
0.000200036
-8.08766e-08
0.000200025
0.000199869
8.36501e-08
0.000199785
8.42197e-08
0.000200025
6.12692e-08
0.000200059
3.15839e-08
0.000200065
9.85907e-11
0.000200065
-3.13971e-08
0.000200065
-6.111e-08
0.000200065
-8.40937e-08
0.000200059
-8.3577e-08
0.000200025
0.000199785
8.08501e-08
0.000199705
8.47092e-08
0.000200021
6.41681e-08
0.00020008
3.39737e-08
0.000200095
1.65512e-10
0.000200099
-3.36583e-08
0.000200099
-6.3897e-08
0.000200095
-8.45106e-08
0.00020008
-8.07414e-08
0.000200021
0.000199705
7.72657e-08
0.000199627
8.21851e-08
0.000200016
6.33338e-08
0.000200099
3.39411e-08
0.000200125
2.61108e-10
0.000200133
-3.34439e-08
0.000200133
-6.29095e-08
0.000200125
-8.18745e-08
0.000200099
-7.7098e-08
0.000200016
0.000199628
7.29495e-08
0.000199554
7.82341e-08
0.000200011
6.09886e-08
0.000200116
3.2933e-08
0.000200153
4.02045e-10
0.000200165
-3.21687e-08
0.000200166
-6.0339e-08
0.000200153
-7.77558e-08
0.000200116
-7.26883e-08
0.000200011
0.000199555
6.87293e-08
0.000199486
7.37698e-08
0.000200006
5.76376e-08
0.000200132
3.13515e-08
0.000200179
6.18389e-10
0.000200196
-3.01744e-08
0.000200196
-5.66327e-08
0.000200179
-7.30313e-08
0.000200133
-6.83267e-08
0.000200006
0.000199487
6.50405e-08
0.000199421
6.9677e-08
0.000200001
5.45135e-08
0.000200147
2.98367e-08
0.000200204
9.48883e-10
0.000200225
-2.80295e-08
0.000200225
-5.29683e-08
0.000200204
-6.85387e-08
0.000200148
-6.44173e-08
0.000200002
0.000199422
6.20043e-08
0.000199359
6.62697e-08
0.000199997
5.19389e-08
0.000200162
2.86793e-08
0.000200227
1.45116e-09
0.000200252
-2.59149e-08
0.000200253
-4.95737e-08
0.000200228
-6.45248e-08
0.000200163
-6.10461e-08
0.000199999
0.000199361
5.96175e-08
0.000199299
6.36348e-08
0.000199993
5.00405e-08
0.000200175
2.80134e-08
0.000200249
2.21331e-09
0.000200278
-2.37968e-08
0.000200279
-4.64327e-08
0.000200251
-6.09785e-08
0.000200178
-5.8159e-08
0.000199996
0.000199303
5.78468e-08
0.000199241
6.1797e-08
0.000199989
4.89119e-08
0.000200188
2.79666e-08
0.00020027
3.3674e-09
0.000200303
-2.15524e-08
0.000200304
-4.34282e-08
0.000200273
-5.77725e-08
0.000200192
-5.56409e-08
0.000199994
0.000199247
5.66981e-08
0.000199184
6.0826e-08
0.000199985
4.86714e-08
0.0002002
2.8708e-08
0.00020029
5.1095e-09
0.000200326
-1.89837e-08
0.000200328
-4.03733e-08
0.000200294
-5.47351e-08
0.000200207
-5.33649e-08
0.000199993
0.000199194
5.62482e-08
0.000199128
6.09003e-08
0.00019998
4.95592e-08
0.000200212
3.05248e-08
0.000200309
7.74698e-09
0.000200349
-1.57996e-08
0.000200351
-3.70227e-08
0.000200315
-5.16801e-08
0.000200221
-5.12154e-08
0.000199992
0.000199143
5.6633e-08
0.000199072
6.22742e-08
0.000199974
5.19938e-08
0.000200222
3.39071e-08
0.000200327
1.17697e-08
0.000200371
-1.15779e-08
0.000200375
-3.30768e-08
0.000200337
-4.84443e-08
0.000200237
-4.91177e-08
0.000199993
0.000199094
5.80163e-08
0.000199013
6.52618e-08
0.000199967
5.65475e-08
0.000200231
3.96096e-08
0.000200344
1.79399e-08
0.000200393
-5.69559e-09
0.000200398
-2.81669e-08
0.000200359
-4.49337e-08
0.000200253
-4.71569e-08
0.000199995
0.000199046
6.09147e-08
0.000198953
7.08736e-08
0.000199957
6.44359e-08
0.000200237
4.89113e-08
0.000200359
2.75028e-08
0.000200414
2.82668e-09
0.000200423
-2.18152e-08
0.000200384
-4.12512e-08
0.000200273
-4.57168e-08
0.000199999
0.000199001
6.60131e-08
0.000198887
8.03216e-08
0.000199943
7.73118e-08
0.00020024
6.37827e-08
0.000200373
4.24417e-08
0.000200436
1.56198e-08
0.00020045
-1.34424e-08
0.000200413
-3.83784e-08
0.000200298
-4.65111e-08
0.000200008
0.000198954
7.43075e-08
0.000198812
9.54998e-08
0.000199922
9.79529e-08
0.000200238
8.76967e-08
0.000200383
6.65378e-08
0.000200457
3.56401e-08
0.000200481
-2.46774e-09
0.000200451
-4.02017e-08
0.000200335
-5.61627e-08
0.000200024
0.000198898
8.71918e-08
0.000198725
1.19165e-07
0.00019989
1.30537e-07
0.000200226
1.26375e-07
0.000200387
1.06942e-07
0.000200476
7.12684e-08
0.000200516
1.98229e-08
0.000200502
-3.68422e-08
0.000200392
-7.15222e-08
0.000200058
0.000198827
1.06276e-07
0.000198619
1.54787e-07
0.000199841
1.80548e-07
0.0002002
1.87397e-07
0.000200381
1.73027e-07
0.000200491
1.31716e-07
0.000200558
4.97337e-08
0.000200584
-8.21093e-08
0.000200524
-2.63458e-07
0.00020024
0.000198563
1.33729e-07
0.000198485
2.0693e-07
0.000199768
2.56124e-07
0.000200151
2.85239e-07
0.000200351
2.92699e-07
0.000200483
2.75691e-07
0.000200575
2.34157e-07
0.000200626
1.69793e-07
0.000200588
4.19807e-07
0.00019999
0.000193853
5.13039e-06
1.71047e-07
0.000198314
2.78723e-07
0.00019966
3.61974e-07
0.000200068
4.25567e-07
0.000200288
4.69344e-07
0.000200439
4.9706e-07
0.000200547
5.33114e-07
0.00020059
6.44056e-07
0.000200477
9.7012e-07
0.000199663
0.000191609
3.21412e-06
2.18641e-07
0.000198095
3.7101e-07
0.000199508
4.98611e-07
0.00019994
6.07392e-07
0.000200179
6.98883e-07
0.000200348
7.7833e-07
0.000200467
8.67832e-07
0.0002005
1.07658e-06
0.000200269
1.77018e-06
0.00019897
0.00018832
5.05842e-06
2.76835e-07
0.000197819
4.8432e-07
0.0001993
6.66501e-07
0.000199758
8.30611e-07
0.000200015
9.80539e-07
0.000200198
1.12691e-06
0.000200321
1.30769e-06
0.00020032
1.66481e-06
0.000199912
2.6912e-06
0.000197943
0.000184693
6.31846e-06
3.46315e-07
0.000197472
6.19853e-07
0.000199027
8.67295e-07
0.000199511
1.09722e-06
0.000199785
1.31604e-06
0.000199979
1.54056e-06
0.000200097
1.82095e-06
0.000200039
2.31504e-06
0.000199417
3.55335e-06
0.000196705
0.000181092
7.15461e-06
4.28117e-07
0.000197044
7.7936e-07
0.000198676
1.10328e-06
0.000199187
1.40957e-06
0.000199479
1.70657e-06
0.000199682
2.01561e-06
0.000199787
2.39653e-06
0.000199658
3.02803e-06
0.000198786
4.49327e-06
0.00019524
0.000177657
7.92846e-06
5.23626e-07
0.00019652
9.65458e-07
0.000198234
1.37845e-06
0.000198774
1.77307e-06
0.000199084
2.1594e-06
0.000199296
2.56283e-06
0.000199384
3.05101e-06
0.00019917
3.81058e-06
0.000198026
5.41968e-06
0.000193631
0.000174521
8.55527e-06
6.35793e-07
0.000195885
1.18214e-06
0.000197687
1.69896e-06
0.000198257
2.19662e-06
0.000198586
2.6872e-06
0.000198805
3.20025e-06
0.000198871
3.81139e-06
0.000198559
4.71106e-06
0.000197127
6.43305e-06
0.000191909
0.000171658
9.29613e-06
7.66121e-07
0.000195119
1.43461e-06
0.000197019
2.07203e-06
0.00019762
2.69036e-06
0.000197968
3.30381e-06
0.000198192
3.94673e-06
0.000198228
4.70488e-06
0.000197801
5.78145e-06
0.00019605
7.64468e-06
0.000190046
0.000169073
1.02293e-05
9.15447e-07
0.000194203
1.72775e-06
0.000196207
2.50476e-06
0.000196843
3.26278e-06
0.00019721
4.01823e-06
0.000197436
4.80928e-06
0.000197437
5.72667e-06
0.000196883
6.97328e-06
0.000194803
8.95224e-06
0.000188067
0.000166784
1.12417e-05
1.08771e-06
0.000193115
2.0655e-06
0.000195229
3.00348e-06
0.000195905
3.92134e-06
0.000196292
4.83748e-06
0.00019652
5.79222e-06
0.000196482
6.8767e-06
0.000195799
8.28296e-06
0.000193397
1.03348e-05
0.000186015
0.000164825
1.22933e-05
1.28643e-06
0.000191829
2.45295e-06
0.000194062
3.57556e-06
0.000194782
4.67564e-06
0.000195192
5.77288e-06
0.000195423
6.90842e-06
0.000195347
8.17087e-06
0.000194536
9.73911e-06
0.000191829
1.18219e-05
0.000183932
0.00016318
1.34668e-05
1.51452e-06
0.000190314
2.89701e-06
0.00019268
4.23072e-06
0.000193448
5.53844e-06
0.000193884
6.84013e-06
0.000194121
8.17592e-06
0.000194011
9.62855e-06
0.000193084
1.13489e-05
0.000190109
1.34096e-05
0.000181871
0.000161817
1.47732e-05
1.77574e-06
0.000188539
3.40552e-06
0.00019105
4.98049e-06
0.000191873
6.52502e-06
0.00019234
8.05841e-06
0.000192588
9.61743e-06
0.000192452
1.12735e-05
0.000191428
1.31338e-05
0.000188248
1.51512e-05
0.000179854
0.000160697
1.62711e-05
2.07438e-06
0.000186464
3.98691e-06
0.000189137
5.83749e-06
0.000190023
7.6524e-06
0.000190525
9.44954e-06
0.000190791
1.12601e-05
0.000190641
1.31387e-05
0.000189549
1.51425e-05
0.000186245
1.71227e-05
0.000177874
0.000159774
1.80456e-05
2.41468e-06
0.00018405
4.6497e-06
0.000186902
6.81465e-06
0.000187858
8.9383e-06
0.000188401
1.10367e-05
0.000188692
1.31336e-05
0.000188544
1.52634e-05
0.000187419
1.74317e-05
0.000184076
1.94037e-05
0.000175902
0.000158992
2.01862e-05
2.80045e-06
0.000181249
5.40178e-06
0.000184301
7.92401e-06
0.000185336
1.03993e-05
0.000185926
1.28419e-05
0.00018625
1.52671e-05
0.000186119
1.76868e-05
0.000185
2.00569e-05
0.000181706
2.2072e-05
0.000173887
0.000158276
2.27876e-05
3.23505e-06
0.000178014
6.24954e-06
0.000181287
9.1753e-06
0.00018241
1.20489e-05
0.000183052
1.48831e-05
0.000183416
1.76845e-05
0.000183318
2.04429e-05
0.000182241
2.30683e-05
0.000179081
2.5201e-05
0.000171754
0.000157529
2.59483e-05
3.72204e-06
0.000174292
7.19712e-06
0.000177812
1.05744e-05
0.000179032
1.38949e-05
0.000179732
1.71708e-05
0.00018014
2.04008e-05
0.000180088
2.35541e-05
0.000179088
2.65019e-05
0.000176133
2.88461e-05
0.00016941
0.000156631
2.97436e-05
4.26303e-06
0.000170029
8.24588e-06
0.000173829
1.21225e-05
0.000175156
1.59384e-05
0.000175916
1.97061e-05
0.000176372
2.34182e-05
0.000176376
2.70265e-05
0.00017548
3.03723e-05
0.000172787
3.30352e-05
0.000166747
0.000155447
3.42193e-05
4.85667e-06
0.000165172
9.39401e-06
0.000169291
1.38153e-05
0.000170735
1.8172e-05
0.000171559
2.24787e-05
0.000172065
2.67237e-05
0.000172131
3.08464e-05
0.000171357
3.46687e-05
0.000168965
3.77638e-05
0.000163652
0.000153828
3.9383e-05
5.50058e-06
0.000159672
1.06363e-05
0.000164156
1.56431e-05
0.000165728
2.05806e-05
0.000166622
2.54667e-05
0.000167179
3.02887e-05
0.000167309
3.49793e-05
0.000166666
3.93522e-05
0.000164592
4.29901e-05
0.000160014
0.000151623
4.51945e-05
6.19168e-06
0.00015348
1.1965e-05
0.000158382
1.75917e-05
0.000160101
2.31414e-05
0.000161072
2.86376e-05
0.000161683
3.40698e-05
0.000161877
3.93702e-05
0.000161366
4.43553e-05
0.000159607
4.86325e-05
0.000155737
0.000148696
5.15601e-05
6.92669e-06
0.000146553
1.33708e-05
0.000151938
1.96434e-05
0.000153828
2.58264e-05
0.000154889
3.19507e-05
0.000155559
3.80114e-05
0.000155816
4.39462e-05
0.000155431
4.95851e-05
0.000153968
5.45729e-05
0.000150749
0.000144935
5.83336e-05
7.7029e-06
0.000138851
1.4845e-05
0.000144796
2.17799e-05
0.000146894
2.8605e-05
0.000148064
3.53605e-05
0.000148803
4.20502e-05
0.000149126
4.86231e-05
0.000148858
5.49306e-05
0.00014766
6.06652e-05
0.000145014
0.000140274
6.5326e-05
8.51926e-06
0.000130331
1.63807e-05
0.000136935
2.39843e-05
0.00013929
3.14469e-05
0.000140601
3.88205e-05
0.00014143
4.61207e-05
0.000141826
5.33118e-05
0.000141667
6.02731e-05
0.000140699
6.67502e-05
0.000138537
0.0001347
7.23243e-05
9.37748e-06
0.000120954
1.79752e-05
0.000128337
2.62435e-05
0.000131022
3.4325e-05
0.00013252
4.22871e-05
0.000133467
5.016e-05
0.000133953
5.79266e-05
0.000133901
6.54969e-05
0.000133129
7.26718e-05
0.000131362
0.000128256
7.91159e-05
1.02832e-05
0.000110671
1.96313e-05
0.000118989
2.85497e-05
0.000122103
3.7217e-05
0.000123853
4.57218e-05
0.000124963
5.41117e-05
0.000125563
6.23905e-05
0.000125622
7.04998e-05
0.000125019
7.82931e-05
0.000123569
0.000121035
8.55143e-05
1.12469e-05
9.94238e-05
2.13578e-05
0.000108878
3.08998e-05
0.000112561
4.01041e-05
0.000114648
4.90895e-05
0.000115977
5.79253e-05
0.000116727
6.66375e-05
0.00011691
7.51975e-05
0.000116459
8.3506e-05
0.000115261
0.000113163
9.13772e-05
1.22843e-05
8.71394e-05
2.3167e-05
9.79953e-05
3.32907e-05
0.000102438
4.29652e-05
0.000104974
5.23531e-05
0.00010659
6.1551e-05
0.00010753
7.06074e-05
0.000107853
7.95212e-05
0.000107546
8.82321e-05
0.00010655
0.000104783
9.66121e-05
1.34164e-05
7.37231e-05
2.50668e-05
8.63448e-05
3.57072e-05
9.17971e-05
4.57638e-05
9.49171e-05
5.54604e-05
9.68929e-05
6.4927e-05
9.8063e-05
7.42354e-05
9.85448e-05
8.34071e-05
9.83738e-05
9.24122e-05
9.75447e-05
9.60294e-05
0.000101166
1.4671e-05
5.90521e-05
2.7024e-05
7.39919e-05
3.80927e-05
8.07283e-05
4.84265e-05
8.45834e-05
5.83248e-05
8.69946e-05
6.79619e-05
8.8426e-05
7.74335e-05
8.90731e-05
8.67785e-05
8.90289e-05
9.59868e-05
8.83363e-05
8.70129e-05
0.000105003
1.60624e-05
4.29897e-05
2.89284e-05
6.11259e-05
4.02848e-05
6.93719e-05
5.07792e-05
7.4089e-05
6.07781e-05
7.69957e-05
7.05e-05
7.87041e-05
8.00636e-05
7.95096e-05
8.95193e-05
7.95732e-05
9.88683e-05
7.89873e-05
7.78093e-05
0.000108072
1.67195e-05
2.62702e-05
3.04515e-05
4.73939e-05
4.2054e-05
5.77694e-05
5.25709e-05
6.35721e-05
6.25598e-05
6.70068e-05
7.22946e-05
6.89693e-05
8.19051e-05
6.9899e-05
9.14428e-05
7.00355e-05
0.00010091
6.95204e-05
6.84461e-05
0.000110273
1.49145e-05
1.13557e-05
2.99433e-05
3.2365e-05
4.23689e-05
4.53438e-05
5.31629e-05
5.27781e-05
6.32058e-05
5.69639e-05
7.29587e-05
5.92164e-05
8.26214e-05
6.02363e-05
9.22599e-05
6.0397e-05
0.000101873
5.99073e-05
5.88964e-05
0.000111423
1.05132e-05
8.42577e-07
2.5538e-05
1.73402e-05
3.91623e-05
3.17194e-05
5.09593e-05
4.09811e-05
6.16082e-05
4.6315e-05
7.1711e-05
4.91137e-05
8.16239e-05
5.03234e-05
9.15006e-05
5.05203e-05
0.000101371
5.00371e-05
4.90652e-05
0.000111202
6.23874e-06
-5.39617e-06
1.81242e-05
5.45477e-06
3.14437e-05
1.83999e-05
4.41689e-05
2.82559e-05
5.59642e-05
3.45196e-05
6.70516e-05
3.80263e-05
7.77466e-05
3.96284e-05
8.82591e-05
4.00078e-05
9.86802e-05
3.96159e-05
3.8725e-05
0.00010902
3.00059e-06
-8.39676e-06
9.91562e-06
-1.46025e-06
2.03933e-05
7.92224e-06
3.24164e-05
1.62327e-05
4.48193e-05
2.21168e-05
5.71035e-05
2.57422e-05
6.91235e-05
2.76083e-05
8.08596e-05
2.82717e-05
9.23597e-05
2.81158e-05
2.74194e-05
0.000103665
-1.4492e-06
-6.94756e-06
9.15493e-07
-3.82494e-06
7.40373e-06
1.43401e-06
1.70299e-05
6.60655e-06
2.87136e-05
1.0433e-05
4.15885e-05
1.28673e-05
5.49202e-05
1.42766e-05
6.81622e-05
1.50297e-05
8.11947e-05
1.50833e-05
1.46237e-05
9.39904e-05
-6.94756e-06
-1.07725e-05
-9.33849e-06
-2.73194e-06
7.70111e-06
2.05684e-05
3.48451e-05
4.98748e-05
6.49581e-05
7.95818e-05
-2.87996e-05
3.393e-05
-2.81512e-05
-6.48407e-07
-2.48561e-05
-3.2951e-06
-2.06432e-05
-4.21291e-06
-1.56759e-05
-4.96731e-06
-1.02499e-05
-5.42596e-06
-4.6508e-06
-5.59911e-06
8.70128e-07
-5.52092e-06
6.21284e-06
-5.34272e-06
1.1371e-05
-5.15811e-06
1.62136e-05
-4.84263e-06
2.05313e-05
-4.31774e-06
2.41058e-05
-3.57447e-06
2.68491e-05
-2.74332e-06
2.87169e-05
-1.86777e-06
2.97139e-05
-9.96998e-07
2.9781e-05
-6.72008e-08
2.88431e-05
9.37971e-07
2.6829e-05
2.01408e-06
2.36776e-05
3.15136e-06
1.9364e-05
4.31357e-06
1.39946e-05
5.36941e-06
8.1113e-06
5.88332e-06
2.90152e-06
5.20981e-06
2.90153e-06
-1.4236e-05
5.13801e-05
-2.00764e-05
5.19203e-06
-1.99553e-05
-3.41628e-06
-1.7861e-05
-6.30713e-06
-1.46794e-05
-8.14893e-06
-1.07167e-05
-9.38867e-06
-6.20613e-06
-1.01097e-05
-1.3743e-06
-1.03527e-05
3.43852e-06
-1.01555e-05
7.94258e-06
-9.66216e-06
1.20137e-05
-8.91373e-06
1.55679e-05
-7.87198e-06
1.85507e-05
-6.55726e-06
2.08967e-05
-5.08935e-06
2.25803e-05
-3.55134e-06
2.35688e-05
-1.98552e-06
2.38891e-05
-3.87461e-07
2.35638e-05
1.26325e-06
2.25822e-05
2.99572e-06
2.09026e-05
4.83095e-06
1.84595e-05
6.75666e-06
1.51629e-05
8.66601e-06
1.08597e-05
1.01865e-05
5.63769e-06
1.04319e-05
8.53922e-06
-8.52865e-06
6.49672e-05
-1.55723e-05
1.22357e-05
-1.73125e-05
-1.67603e-06
-1.65287e-05
-7.09095e-06
-1.43334e-05
-1.03442e-05
-1.12062e-05
-1.25159e-05
-7.47491e-06
-1.3841e-05
-3.38991e-06
-1.44377e-05
8.5867e-07
-1.44041e-05
4.96612e-06
-1.37696e-05
8.64878e-06
-1.25964e-05
1.17957e-05
-1.10189e-05
1.43943e-05
-9.15585e-06
1.6421e-05
-7.11614e-06
1.78592e-05
-4.98947e-06
1.87055e-05
-2.83186e-06
1.89798e-05
-6.61752e-07
1.87107e-05
1.53237e-06
1.79262e-05
3.78012e-06
1.66441e-05
6.11307e-06
1.48579e-05
8.54287e-06
1.25104e-05
1.10135e-05
9.43156e-06
1.32653e-05
5.34614e-06
1.45173e-05
1.38854e-05
-5.98929e-06
7.72749e-05
-1.40544e-05
2.03007e-05
-1.68315e-05
1.10109e-06
-1.67623e-05
-7.16012e-06
-1.50856e-05
-1.2021e-05
-1.24148e-05
-1.51867e-05
-9.11639e-06
-1.71394e-05
-5.4629e-06
-1.80912e-05
-1.67135e-06
-1.81957e-05
2.02606e-06
-1.7467e-05
5.39941e-06
-1.59697e-05
8.2975e-06
-1.3917e-05
1.06702e-05
-1.15285e-05
1.24927e-05
-8.93866e-06
1.37626e-05
-6.25939e-06
1.45006e-05
-3.56982e-06
1.47414e-05
-9.02639e-07
1.45251e-05
1.74869e-06
1.38884e-05
4.41687e-06
1.28602e-05
7.1412e-06
1.14562e-05
9.94691e-06
9.66108e-06
1.28086e-05
7.38198e-06
1.55444e-05
4.34687e-06
1.75524e-05
1.82322e-05
-3.22579e-06
8.76553e-05
-1.26856e-05
2.97605e-05
-1.67063e-05
5.12176e-06
-1.7416e-05
-6.45041e-06
-1.6254e-05
-1.31829e-05
-1.39888e-05
-1.74519e-05
-1.10431e-05
-2.0085e-05
-7.72837e-06
-2.1406e-05
-4.31604e-06
-2.1608e-05
-9.961e-07
-2.0787e-05
2.09424e-06
-1.90601e-05
4.81186e-06
-1.66346e-05
7.03883e-06
-1.37555e-05
8.72704e-06
-1.06269e-05
9.88883e-06
-7.42118e-06
1.05693e-05
-4.25026e-06
1.08233e-05
-1.15664e-06
1.0701e-05
1.871e-06
1.02425e-05
4.87534e-06
9.47736e-06
7.90631e-06
8.42371e-06
1.10006e-05
7.08045e-06
1.41519e-05
5.39283e-06
1.7232e-05
3.12034e-06
1.98249e-05
2.13526e-05
-3.62723e-07
9.59465e-05
-1.02435e-05
3.96413e-05
-1.56319e-05
1.05102e-05
-1.74362e-05
-4.64608e-06
-1.70638e-05
-1.35554e-05
-1.53999e-05
-1.91158e-05
-1.29616e-05
-2.25233e-05
-1.00847e-05
-2.42829e-05
-7.03129e-06
-2.46614e-05
-3.99554e-06
-2.38227e-05
-1.13381e-06
-2.19218e-05
1.40293e-06
-1.91713e-05
3.48616e-06
-1.58387e-05
5.06161e-06
-1.22023e-05
6.14817e-06
-8.50774e-06
6.80805e-06
-4.91014e-06
7.11239e-06
-1.46099e-06
7.11936e-06
1.86403e-06
6.86955e-06
5.12515e-06
6.38879e-06
8.38706e-06
5.69156e-06
1.16978e-05
4.77856e-06
1.50649e-05
3.61524e-06
1.83953e-05
2.04446e-06
2.13956e-05
2.3397e-05
2.12927e-06
0.000102373
-7.0341e-06
4.88046e-05
-1.33301e-05
1.68062e-05
-1.63343e-05
-1.64189e-06
-1.70432e-05
-1.28465e-05
-1.62578e-05
-1.99012e-05
-1.45353e-05
-2.42458e-05
-1.22473e-05
-2.65709e-05
-9.65301e-06
-2.72557e-05
-6.95309e-06
-2.65226e-05
-4.33322e-06
-2.45417e-05
-1.97169e-06
-2.15329e-05
-8.73095e-09
-1.78017e-05
1.48753e-06
-1.36986e-05
2.53507e-06
-9.55527e-06
3.20947e-06
-5.58455e-06
3.59633e-06
-1.84785e-06
3.76004e-06
1.70032e-06
3.74012e-06
5.14506e-06
3.55863e-06
8.56854e-06
3.22724e-06
1.20292e-05
2.74808e-06
1.55441e-05
2.10097e-06
1.90424e-05
1.19598e-06
2.23006e-05
2.4593e-05
4.30601e-06
0.000107363
-3.82725e-06
5.69379e-05
-1.04358e-05
2.34147e-05
-1.44432e-05
2.36556e-06
-1.62548e-05
-1.10349e-05
-1.64924e-05
-1.96636e-05
-1.56554e-05
-2.50828e-05
-1.41033e-05
-2.8123e-05
-1.211e-05
-2.9249e-05
-9.85092e-06
-2.87817e-05
-7.5177e-06
-2.68749e-05
-5.3231e-06
-2.37275e-05
-3.44213e-06
-1.96826e-05
-1.97588e-06
-1.51649e-05
-9.22151e-07
-1.0609e-05
-1.99068e-07
-6.30764e-06
2.94087e-07
-2.34101e-06
6.30336e-07
1.36407e-06
8.49501e-07
4.92589e-06
9.7082e-07
8.44722e-06
1.00394e-06
1.19961e-05
9.51569e-07
1.55964e-05
7.98629e-07
1.91953e-05
4.89006e-07
2.26102e-05
2.5082e-05
6.25997e-06
0.000111332
-9.25101e-07
6.4123e-05
-7.50234e-06
2.9992e-05
-1.21913e-05
7.05449e-06
-1.49711e-05
-8.25503e-06
-1.62257e-05
-1.8409e-05
-1.6353e-05
-2.49555e-05
-1.56546e-05
-2.88213e-05
-1.44064e-05
-3.04972e-05
-1.27115e-05
-3.04767e-05
-1.07248e-05
-2.88616e-05
-8.69194e-06
-2.57603e-05
-6.83625e-06
-2.15383e-05
-5.32501e-06
-1.66761e-05
-4.20132e-06
-1.17327e-05
-3.39051e-06
-7.11845e-06
-2.77362e-06
-2.9579e-06
-2.26071e-06
8.51163e-07
-1.8061e-06
4.47128e-06
-1.39077e-06
8.03189e-06
-1.00698e-06
1.16123e-05
-6.53884e-07
1.52433e-05
-3.48209e-07
1.88897e-05
-1.33352e-07
2.23954e-05
2.49487e-05
8.0556e-06
0.000114518
1.70278e-06
7.04758e-05
-4.70744e-06
3.64022e-05
-9.84861e-06
1.21957e-05
-1.34523e-05
-4.6513e-06
-1.56818e-05
-1.61796e-05
-1.68109e-05
-2.38264e-05
-1.70638e-05
-2.85684e-05
-1.6608e-05
-3.0953e-05
-1.5591e-05
-3.14937e-05
-1.4035e-05
-3.04176e-05
-1.21812e-05
-2.76141e-05
-1.0291e-05
-2.34285e-05
-8.62492e-06
-1.83422e-05
-7.32646e-06
-1.30312e-05
-6.36596e-06
-8.07895e-06
-5.60282e-06
-3.72104e-06
-4.91275e-06
1.61093e-07
-4.23284e-06
3.79137e-06
-3.53913e-06
7.33819e-06
-2.82447e-06
1.08976e-05
-2.09132e-06
1.45102e-05
-1.36167e-06
1.816e-05
-6.81386e-07
2.17151e-05
2.42673e-05
9.70172e-06
0.00011711
4.06707e-06
7.61104e-05
-2.12162e-06
4.25909e-05
-7.56386e-06
1.76379e-05
-1.1847e-05
-3.68174e-07
-1.49632e-05
-1.30634e-05
-1.70675e-05
-2.17221e-05
-1.83214e-05
-2.73145e-05
-1.87491e-05
-3.05253e-05
-1.84947e-05
-3.17481e-05
-1.75178e-05
-3.13944e-05
-1.59385e-05
-2.91934e-05
-1.40047e-05
-2.53623e-05
-1.20613e-05
-2.02856e-05
-1.04176e-05
-1.46749e-05
-9.18196e-06
-9.31463e-06
-8.21835e-06
-4.68466e-06
-7.34076e-06
-7.16497e-07
-6.44448e-06
2.89509e-06
-5.48955e-06
6.38325e-06
-4.46457e-06
9.87261e-06
-3.37451e-06
1.34201e-05
-2.25243e-06
1.70379e-05
-1.16532e-06
2.0628e-05
2.3102e-05
1.12826e-05
0.000119294
6.21429e-06
8.11788e-05
2.43931e-07
4.85612e-05
-5.40522e-06
2.32871e-05
-1.02448e-05
4.47137e-06
-1.41484e-05
-9.15974e-06
-1.71638e-05
-1.87067e-05
-1.93769e-05
-2.51014e-05
-2.08163e-05
-2.90859e-05
-2.14353e-05
-3.11291e-05
-2.12245e-05
-3.16052e-05
-2.01266e-05
-3.02913e-05
-1.82689e-05
-2.722e-05
-1.59963e-05
-2.25582e-05
-1.37866e-05
-1.68845e-05
-1.20159e-05
-1.10853e-05
-1.07024e-05
-5.9982e-06
-9.58627e-06
-1.83265e-06
-8.46875e-06
1.77758e-06
-7.26468e-06
5.17918e-06
-5.94605e-06
8.55398e-06
-4.51292e-06
1.1987e-05
-3.00572e-06
1.55307e-05
-1.52603e-06
1.91483e-05
2.15759e-05
1.28458e-05
0.000121221
8.21007e-06
8.58145e-05
2.43211e-06
5.43392e-05
-3.37324e-06
2.90924e-05
-8.67875e-06
9.77688e-06
-1.32809e-05
-4.55763e-06
-1.71427e-05
-1.48449e-05
-2.02908e-05
-2.19533e-05
-2.27292e-05
-2.66475e-05
-2.43611e-05
-2.94972e-05
-2.51465e-05
-3.08198e-05
-2.4802e-05
-3.06359e-05
-2.33342e-05
-2.86877e-05
-2.0921e-05
-2.49714e-05
-1.80371e-05
-1.97685e-05
-1.53388e-05
-1.37835e-05
-1.32898e-05
-8.04724e-06
-1.17549e-05
-3.36754e-06
-1.03613e-05
3.83934e-07
-8.89815e-06
3.71607e-06
-7.28794e-06
6.94377e-06
-5.50092e-06
1.02e-05
-3.54389e-06
1.35737e-05
-1.56309e-06
1.71675e-05
2.00128e-05
1.44921e-05
0.000123
1.01665e-05
9.01401e-05
4.53986e-06
5.99658e-05
-1.39362e-06
3.50259e-05
-7.0892e-06
1.54725e-05
-1.22935e-05
6.46708e-07
-1.69071e-05
-1.02313e-05
-2.09106e-05
-1.79498e-05
-2.42879e-05
-2.32702e-05
-2.69788e-05
-2.68063e-05
-2.88805e-05
-2.89181e-05
-2.97227e-05
-2.97937e-05
-2.91392e-05
-2.92712e-05
-2.71649e-05
-2.69457e-05
-2.39795e-05
-2.29539e-05
-2.02173e-05
-1.75458e-05
-1.67821e-05
-1.14824e-05
-1.42288e-05
-5.92091e-06
-1.22876e-05
-1.55728e-06
-1.04881e-05
1.91665e-06
-8.56487e-06
5.0205e-06
-6.41065e-06
8.04576e-06
-3.95597e-06
1.1119e-05
-1.23591e-06
1.44475e-05
1.87769e-05
1.63486e-05
0.000124697
1.2238e-05
9.42507e-05
6.71993e-06
6.54839e-05
6.80846e-07
4.1065e-05
-5.33406e-06
2.14874e-05
-1.10348e-05
6.34744e-06
-1.62863e-05
-4.97981e-06
-2.10415e-05
-1.31945e-05
-2.52769e-05
-1.90349e-05
-2.89311e-05
-2.31521e-05
-3.19135e-05
-2.59357e-05
-3.41054e-05
-2.76018e-05
-3.50768e-05
-2.82998e-05
-3.43761e-05
-2.76464e-05
-3.1973e-05
-2.53571e-05
-2.80062e-05
-2.15126e-05
-2.31642e-05
-1.63244e-05
-1.86133e-05
-1.04719e-05
-1.51209e-05
-5.04964e-06
-1.24394e-05
-7.64901e-07
-9.9089e-06
2.49003e-06
-7.05654e-06
5.1934e-06
-3.49823e-06
7.56072e-06
1.78701e-06
9.16221e-06
8.47049e-06
1.20935e-05
1.8541e-05
0.000126342
1.45855e-05
9.82062e-05
9.1403e-06
7.09292e-05
3.02109e-06
4.71842e-05
-3.23355e-06
2.7742e-05
-9.31412e-06
1.2428e-05
-1.50629e-05
7.69017e-07
-2.04162e-05
-7.84129e-06
-2.53626e-05
-1.40885e-05
-2.98663e-05
-1.86484e-05
-3.38623e-05
-2.19397e-05
-3.72475e-05
-2.42166e-05
-3.98869e-05
-2.56605e-05
-4.1231e-05
-2.63022e-05
-4.08392e-05
-2.57489e-05
-3.84623e-05
-2.38894e-05
-3.41748e-05
-2.06119e-05
-2.85015e-05
-1.61452e-05
-2.26174e-05
-1.09337e-05
-1.75402e-05
-5.84212e-06
-1.3393e-05
-1.65714e-06
-9.66883e-06
1.46921e-06
-5.89699e-06
3.78888e-06
-2.49544e-06
5.76066e-06
8.59989e-06
-2.62483e-06
2.11997e-05
0.00012793
1.73826e-05
0.000102023
1.20135e-05
7.62982e-05
5.846e-06
5.33517e-05
-5.77917e-07
3.41659e-05
-6.92915e-06
1.87792e-05
-1.30225e-05
6.86241e-06
-1.87839e-05
-2.07996e-06
-2.42295e-05
-8.64283e-06
-2.93949e-05
-1.3483e-05
-3.42091e-05
-1.71254e-05
-3.85924e-05
-1.98334e-05
-4.24789e-05
-2.17739e-05
-4.57209e-05
-2.30602e-05
-4.78466e-05
-2.36232e-05
-4.84789e-05
-2.3257e-05
-4.72419e-05
-2.18489e-05
-4.41136e-05
-1.92735e-05
-3.94092e-05
-1.56381e-05
-3.40759e-05
-1.11755e-05
-2.92317e-05
-6.5013e-06
-2.60319e-05
-1.73058e-06
-2.55743e-05
3.33127e-06
-2.89364e-05
9.12274e-06
1.65553e-05
-3.68918e-05
2.44684e-05
0.00012941
2.08095e-05
0.000105682
1.55473e-05
8.15604e-05
9.37684e-06
5.95222e-05
2.84524e-06
4.06975e-05
-3.69369e-06
2.53182e-05
-1.00246e-05
1.31933e-05
-1.60442e-05
3.93963e-06
-2.17499e-05
-2.93711e-06
-2.7224e-05
-8.00893e-06
-3.24956e-05
-1.18538e-05
-3.75091e-05
-1.48199e-05
-4.22116e-05
-1.70715e-05
-4.65853e-05
-1.86865e-05
-5.0519e-05
-1.96895e-05
-5.37339e-05
-2.00421e-05
-5.59515e-05
-1.96313e-05
-5.71096e-05
-1.81154e-05
-5.7235e-05
-1.55127e-05
-5.66452e-05
-1.17653e-05
-5.60327e-05
-7.11375e-06
-5.60112e-05
-1.75216e-06
-5.70564e-05
4.37655e-06
-5.90432e-05
1.11095e-05
1.81297e-05
-6.06176e-05
2.8458e-05
0.000130696
2.50152e-05
0.000109125
1.99138e-05
8.66617e-05
1.38033e-05
6.56327e-05
7.2318e-06
4.72691e-05
5.77509e-07
3.19725e-05
-5.91463e-06
1.96854e-05
-1.21025e-05
1.01275e-05
-1.79281e-05
2.88848e-06
-2.34251e-05
-2.51192e-06
-2.87068e-05
-6.57206e-06
-3.38272e-05
-9.69943e-06
-3.87723e-05
-1.21264e-05
-4.35312e-05
-1.39276e-05
-4.8095e-05
-1.51257e-05
-5.24308e-05
-1.57064e-05
-5.64595e-05
-1.56025e-05
-5.98958e-05
-1.46792e-05
-6.25693e-05
-1.28392e-05
-6.4345e-05
-9.98958e-06
-6.53097e-05
-6.14903e-06
-6.56085e-05
-1.45329e-06
-6.5077e-05
3.84497e-06
-6.34077e-05
9.44024e-06
1.47361e-05
-6.00141e-05
3.32473e-05
0.000131668
3.01219e-05
0.00011225
2.52704e-05
9.15133e-05
1.93046e-05
7.15985e-05
1.27755e-05
5.37981e-05
6.08888e-06
3.86591e-05
-4.8064e-07
2.62549e-05
-6.75623e-06
1.64031e-05
-1.26469e-05
8.77911e-06
-1.81325e-05
2.97375e-06
-2.32681e-05
-1.43648e-06
-2.81428e-05
-4.82473e-06
-3.28349e-05
-7.43438e-06
-3.73625e-05
-9.39996e-06
-4.17175e-05
-1.07707e-05
-4.58778e-05
-1.15461e-05
-4.97781e-05
-1.17023e-05
-5.32855e-05
-1.11718e-05
-5.62484e-05
-9.87634e-06
-5.84732e-05
-7.76474e-06
-5.97259e-05
-4.89633e-06
-5.9758e-05
-1.42116e-06
-5.83577e-05
2.4446e-06
-5.53194e-05
6.40195e-06
9.99756e-06
-5.05808e-05
3.88719e-05
0.000132179
3.62057e-05
0.000114917
3.1734e-05
9.5985e-05
2.60286e-05
7.73038e-05
1.96439e-05
6.01829e-05
1.30147e-05
4.52883e-05
6.44849e-06
3.28211e-05
1.51542e-07
2.27e-05
-5.7537e-06
1.46844e-05
-1.12221e-05
8.44217e-06
-1.62713e-05
3.61266e-06
-2.09614e-05
-1.34565e-07
-2.53506e-05
-3.04525e-06
-2.9466e-05
-5.28453e-06
-3.33049e-05
-6.93174e-06
-3.68443e-05
-8.00675e-06
-4.00513e-05
-8.49525e-06
-4.28434e-05
-8.37962e-06
-4.5099e-05
-7.6208e-06
-4.66687e-05
-6.19502e-06
-4.73737e-05
-4.19135e-06
-4.7032e-05
-1.76287e-06
-4.5507e-05
9.19637e-07
-4.27666e-05
3.66159e-06
6.24231e-06
-3.90114e-05
4.53087e-05
0.000132065
4.32759e-05
0.000116949
3.93546e-05
9.99063e-05
3.40638e-05
8.25945e-05
2.79538e-05
6.62929e-05
2.14857e-05
5.17564e-05
1.50021e-05
3.93047e-05
8.73855e-06
2.89636e-05
2.84355e-06
2.05794e-05
-2.6116e-06
1.38973e-05
-7.61858e-06
8.61964e-06
-1.22098e-05
4.45666e-06
-1.64221e-05
1.16703e-06
-2.02785e-05
-1.42809e-06
-2.37728e-05
-3.43743e-06
-2.68738e-05
-4.90577e-06
-2.95414e-05
-5.82765e-06
-3.17322e-05
-6.18883e-06
-3.33905e-05
-5.96254e-06
-3.4439e-05
-5.14648e-06
-3.47933e-05
-3.83706e-06
-3.43766e-05
-2.17957e-06
-3.31505e-05
-3.06469e-07
-3.11485e-05
1.65964e-06
3.59961e-06
-2.85058e-05
5.24654e-05
0.000131159
5.12599e-05
0.000118155
4.80952e-05
0.000103071
4.34154e-05
8.72743e-05
3.77503e-05
7.19581e-05
3.15783e-05
5.79283e-05
2.52753e-05
4.56077e-05
1.91104e-05
3.51285e-05
1.32588e-05
2.64309e-05
7.81736e-06
1.93388e-05
2.81952e-06
1.36175e-05
-1.74384e-06
9.02002e-06
-5.89742e-06
5.32061e-06
-9.65876e-06
2.33325e-06
-1.30208e-05
-7.53616e-08
-1.59529e-05
-1.97372e-06
-1.84193e-05
-3.36121e-06
-2.03974e-05
-4.2107e-06
-2.18663e-05
-4.49366e-06
-2.27938e-05
-4.219e-06
-2.31431e-05
-3.48776e-06
-2.28908e-05
-2.43186e-06
-2.20381e-05
-1.15912e-06
-2.06207e-05
2.42219e-07
1.69061e-06
-1.87117e-05
6.01768e-05
0.000129316
5.99919e-05
0.00011834
5.78121e-05
0.000105251
5.39796e-05
9.11069e-05
4.89769e-05
7.69608e-05
4.32838e-05
6.36214e-05
3.73025e-05
5.1589e-05
3.13362e-05
4.10948e-05
2.55931e-05
3.2174e-05
2.01983e-05
2.47337e-05
1.52092e-05
1.86066e-05
1.06361e-05
1.35931e-05
6.46549e-06
9.49121e-06
2.68576e-06
6.11298e-06
-6.90795e-07
3.30119e-06
-3.6304e-06
9.6589e-07
-6.1166e-06
-8.75015e-07
-8.15018e-06
-2.17712e-06
-9.72211e-06
-2.92173e-06
-1.07985e-05
-3.14261e-06
-1.1353e-05
-2.93323e-06
-1.1386e-05
-2.39886e-06
-1.09133e-05
-1.63186e-06
-9.96676e-06
-7.0433e-07
3.19157e-07
-8.5953e-06
6.82127e-05
0.00012643
6.92129e-05
0.00011734
6.82422e-05
0.000106221
6.55175e-05
9.38316e-05
6.14407e-05
8.10375e-05
5.64656e-05
6.85966e-05
5.10061e-05
5.70485e-05
4.53954e-05
4.67054e-05
3.98769e-05
3.76926e-05
3.46094e-05
3.00012e-05
2.96797e-05
2.35362e-05
2.51196e-05
1.81532e-05
2.09273e-05
1.36836e-05