/*--------------------------------*- C++ -*----------------------------------*\
| =========                 |                                                 |
| \\      /  F ield         | OpenFOAM: The Open Source CFD Toolbox           |
|  \\    /   O peration     | Version:  v2012                                 |
|   \\  /    A nd           | Website:  www.openfoam.com                      |
|    \\/     M anipulation  |                                                 |
\*---------------------------------------------------------------------------*/
FoamFile
{
    version     2.0;
    format      ascii;
    class       volVectorField;
    location    "504";
    object      U;
}
// * * * * * * * * * * * * * * * * * * * * * * * * * * * * * * * * * * * * * //

dimensions      [0 1 -1 0 0 0 0];


internalField   nonuniform List<vector> 
6556
(
(6.54387e-05 -0.999793 0)
(0.000171044 -1.00003 0)
(0.00011847 -1.00002 0)
(6.18243e-05 -1.00001 0)
(1.92232e-05 -1.00001 0)
(-1.90905e-05 -1.00001 0)
(-6.17131e-05 -1.00001 0)
(-0.000118399 -1.00002 0)
(-0.000171031 -1.00003 0)
(-6.54347e-05 -0.999793 0)
(0.000267128 -0.999536 0)
(0.000318151 -1.00011 0)
(0.000244339 -1.00012 0)
(0.000146212 -1.0001 0)
(4.83329e-05 -1.00009 0)
(-4.79262e-05 -1.00009 0)
(-0.000145869 -1.0001 0)
(-0.000244096 -1.00012 0)
(-0.00031811 -1.00011 0)
(-0.000267116 -0.999536 0)
(0.00032988 -0.999158 0)
(0.000362932 -1.00013 0)
(0.000294115 -1.00024 0)
(0.000188889 -1.00025 0)
(6.44674e-05 -1.00024 0)
(-6.36807e-05 -1.00024 0)
(-0.000188192 -1.00025 0)
(-0.000293566 -1.00024 0)
(-0.000362456 -1.00013 0)
(-0.000329728 -0.999158 0)
(0.000332975 -0.998734 0)
(0.000357232 -1.00012 0)
(0.00030277 -1.00035 0)
(0.000202373 -1.0004 0)
(7.03638e-05 -1.00041 0)
(-6.9044e-05 -1.00041 0)
(-0.00020119 -1.0004 0)
(-0.000301808 -1.00035 0)
(-0.000356596 -1.00012 0)
(-0.000332669 -0.998734 0)
(0.000320442 -0.998326 0)
(0.000343201 -1.00009 0)
(0.000297538 -1.00045 0)
(0.00020133 -1.00055 0)
(7.09465e-05 -1.00058 0)
(-6.88674e-05 -1.00058 0)
(-0.000199453 -1.00055 0)
(-0.000296045 -1.00045 0)
(-0.000342231 -1.00009 0)
(-0.00031995 -0.998328 0)
(0.000303233 -0.997948 0)
(0.00032326 -1.00007 0)
(0.000286786 -1.00054 0)
(0.000194598 -1.00069 0)
(6.91816e-05 -1.00075 0)
(-6.59789e-05 -1.00075 0)
(-0.000191714 -1.0007 0)
(-0.000284522 -1.00054 0)
(-0.000321739 -1.00007 0)
(-0.000302475 -0.997951 0)
(0.000285758 -0.997595 0)
(0.00030352 -1.00004 0)
(0.000270851 -1.00062 0)
(0.000184857 -1.00083 0)
(6.63899e-05 -1.00091 0)
(-6.14624e-05 -1.00091 0)
(-0.000180416 -1.00083 0)
(-0.000267334 -1.00062 0)
(-0.000301159 -1.00004 0)
(-0.000284659 -0.997599 0)
(0.000269898 -0.997261 0)
(0.000285951 -1.00002 0)
(0.00025608 -1.0007 0)
(0.00017531 -1.00096 0)
(6.38827e-05 -1.00106 0)
(-5.63224e-05 -1.00106 0)
(-0.000168489 -1.00096 0)
(-0.00025066 -1.0007 0)
(-0.000282307 -1.00002 0)
(-0.000268226 -0.997268 0)
(0.000256346 -0.996944 0)
(0.000271385 -0.999994 0)
(0.000243901 -1.00077 0)
(0.000167459 -1.00108 0)
(6.24216e-05 -1.0012 0)
(-5.08609e-05 -1.0012 0)
(-0.000157022 -1.00108 0)
(-0.000235596 -1.00078 0)
(-0.000265812 -1 0)
(-0.000253746 -0.996955 0)
(0.000245227 -0.996641 0)
(0.000260025 -0.999973 0)
(0.000234676 -1.00084 0)
(0.000161964 -1.00119 0)
(6.25004e-05 -1.00133 0)
(-4.487e-05 -1.00133 0)
(-0.000146043 -1.0012 0)
(-0.00022201 -1.00085 0)
(-0.000251572 -0.999986 0)
(-0.00024125 -0.996657 0)
(0.000236452 -0.996348 0)
(0.000251825 -0.999953 0)
(0.000228625 -1.00091 0)
(0.000159321 -1.0013 0)
(6.46597e-05 -1.00145 0)
(-3.78397e-05 -1.00146 0)
(-0.000135108 -1.00131 0)
(-0.000209388 -1.00093 0)
(-0.000239064 -0.999974 0)
(-0.000230456 -0.996373 0)
(0.000229939 -0.996062 0)
(0.000246922 -0.999933 0)
(0.000226128 -1.00097 0)
(0.000160109 -1.0014 0)
(6.96563e-05 -1.00157 0)
(-2.89653e-05 -1.00158 0)
(-0.000123451 -1.00142 0)
(-0.000197014 -1.001 0)
(-0.000227616 -0.999965 0)
(-0.000220972 -0.996101 0)
(0.000225767 -0.995781 0)
(0.0002458 -0.999912 0)
(0.000228091 -1.00103 0)
(0.000165374 -1.0015 0)
(7.87027e-05 -1.00169 0)
(-1.70225e-05 -1.0017 0)
(-0.000109987 -1.00152 0)
(-0.000184029 -1.00107 0)
(-0.000216561 -0.99996 0)
(-0.000212423 -0.995839 0)
(0.000224212 -0.995499 0)
(0.000249175 -0.999887 0)
(0.000235889 -1.00108 0)
(0.000177014 -1.00159 0)
(9.37967e-05 -1.0018 0)
(-1.41834e-07 -1.00181 0)
(-9.32495e-05 -1.00163 0)
(-0.000169514 -1.00114 0)
(-0.000205409 -0.999961 0)
(-0.000204558 -0.995589 0)
(0.00022573 -0.995214 0)
(0.000258032 -0.999855 0)
(0.000250925 -1.00113 0)
(0.000198036 -1.00168 0)
(0.000118061 -1.00191 0)
(2.45338e-05 -1.00193 0)
(-7.12145e-05 -1.00174 0)
(-0.000152566 -1.00122 0)
(-0.000194155 -0.999967 0)
(-0.000197622 -0.995348 0)
(0.000231329 -0.994918 0)
(0.000275304 -0.999813 0)
(0.000278407 -1.00117 0)
(0.000233129 -1.00176 0)
(0.000156709 -1.00202 0)
(6.16352e-05 -1.00205 0)
(-4.09197e-05 -1.00185 0)
(-0.000132545 -1.00131 0)
(-0.000183519 -0.999983 0)
(-0.00019326 -0.995116 0)
(0.000242519 -0.994603 0)
(0.000305115 -0.999755 0)
(0.000323843 -1.0012 0)
(0.000289983 -1.00183 0)
(0.00021764 -1.00212 0)
(0.000118884 -1.00218 0)
(2.38961e-06 -1.00199 0)
(-0.000110283 -1.00142 0)
(-0.000179575 -1.00001 0)
(-0.000195617 -0.994888 0)
(0.000261465 -0.994256 0)
(0.000353421 -0.999669 0)
(0.00039652 -1.0012 0)
(0.000381114 -1.00189 0)
(0.000316703 -1.00223 0)
(0.000210231 -1.00232 0)
(6.68366e-05 -1.00215 0)
(-9.1868e-05 -1.00157 0)
(-0.000204961 -1.00008 0)
(-0.000225765 -0.994626 0)
(0.00029121 -0.993857 0)
(0.000428641 -0.99954 0)
(0.000510451 -1.00117 0)
(0.000526182 -1.00193 0)
(0.000479872 -1.00233 0)
(0.000368026 -1.00248 0)
(0.000185735 -1.00236 0)
(-5.10733e-05 -1.00179 0)
(-0.000240896 -1.00015 0)
(-0.000170256 -0.994296 0)
(0.000334981 -0.993381 0)
(0.000540971 -0.999346 0)
(0.000683356 -1.00108 0)
(0.000751931 -1.00193 0)
(0.000741294 -1.00242 0)
(0.000634592 -1.00268 0)
(0.000381605 -1.00268 0)
(-4.57715e-05 -1.00223 0)
(-0.00068476 -1.00085 0)
(-0.00089487 -0.99669 0)
(0.000399866 -0.99279 0)
(0.000702714 -0.999051 0)
(0.000939399 -1.00091 0)
(0.00110034 -1.00186 0)
(0.00117735 -1.00246 0)
(0.00116633 -1.00286 0)
(0.00101876 -1.0031 0)
(0.000868689 -1.00289 0)
(0.00167837 -1.00088 0)
(0.009203 -0.981807 0)
(0.000490229 -0.99204 0)
(0.000922463 -0.998612 0)
(0.00129379 -1.00059 0)
(0.00159114 -1.00164 0)
(0.00180973 -1.00235 0)
(0.00196188 -1.00286 0)
(0.00205328 -1.0031 0)
(0.00195362 -1.00281 0)
(0.00234053 -0.999433 0)
(0.0166721 -0.964034 0)
(0.000606248 -0.991079 0)
(0.00120328 -0.997975 0)
(0.00175042 -1.00008 0)
(0.00222551 -1.00123 0)
(0.00262446 -1.00203 0)
(0.00297513 -1.00261 0)
(0.00333912 -1.00284 0)
(0.00359175 -1.00205 0)
(0.00355026 -0.996854 0)
(0.0206784 -0.949392 0)
(0.000748481 -0.989853 0)
(0.00154714 -0.997088 0)
(0.0023116 -0.999315 0)
(0.00300589 -1.00056 0)
(0.00362769 -1.00144 0)
(0.00421476 -1.00206 0)
(0.00489539 -1.00216 0)
(0.00580643 -1.00063 0)
(0.00591124 -0.992687 0)
(0.0243377 -0.933031 0)
(0.000918323 -0.988309 0)
(0.00195792 -0.995899 0)
(0.00298293 -0.998254 0)
(0.00393878 -0.999583 0)
(0.00482768 -1.00053 0)
(0.00569259 -1.00114 0)
(0.00668667 -1.00102 0)
(0.0082174 -0.998505 0)
(0.00885756 -0.986976 0)
(0.0270012 -0.914477 0)
(0.00111809 -0.986388 0)
(0.00244134 -0.994351 0)
(0.00377282 -0.996839 0)
(0.00503349 -0.998255 0)
(0.00623074 -0.999252 0)
(0.00741241 -0.999819 0)
(0.00873323 -0.999373 0)
(0.0108162 -0.995679 0)
(0.0122664 -0.9801 0)
(0.0293102 -0.896494 0)
(0.00135084 -0.984025 0)
(0.00300531 -0.992384 0)
(0.00469484 -0.995012 0)
(0.00630925 -0.996518 0)
(0.00786149 -0.997557 0)
(0.00940608 -0.998048 0)
(0.0110906 -0.997205 0)
(0.0136807 -0.992189 0)
(0.0161144 -0.972337 0)
(0.0311745 -0.879957 0)
(0.00162202 -0.981146 0)
(0.00366582 -0.989926 0)
(0.00576777 -0.992705 0)
(0.00779572 -0.994305 0)
(0.00976193 -0.995383 0)
(0.0117325 -0.995775 0)
(0.013852 -0.994475 0)
(0.0169386 -0.98805 0)
(0.020448 -0.96397 0)
(0.0337222 -0.865098 0)
(0.00193861 -0.977664 0)
(0.0044346 -0.986918 0)
(0.00701564 -0.989841 0)
(0.00952748 -0.991537 0)
(0.0119785 -0.992646 0)
(0.0144532 -0.99291 0)
(0.0171135 -0.99108 0)
(0.0207378 -0.983139 0)
(0.0253141 -0.955009 0)
(0.0378857 -0.851507 0)
(0.00230313 -0.973484 0)
(0.00531906 -0.983243 0)
(0.0084656 -0.986329 0)
(0.0115357 -0.98812 0)
(0.0145466 -0.989249 0)
(0.0175976 -0.989349 0)
(0.0208788 -0.986911 0)
(0.0250941 -0.977344 0)
(0.0304724 -0.945384 0)
(0.0426701 -0.839249 0)
(0.00272052 -0.968503 0)
(0.00633672 -0.978789 0)
(0.0101392 -0.982068 0)
(0.0138485 -0.983956 0)
(0.017498 -0.985093 0)
(0.0211928 -0.985004 0)
(0.025146 -0.981915 0)
(0.0299653 -0.9707 0)
(0.036142 -0.935323 0)
(0.0475275 -0.828633 0)
(0.00319883 -0.9626 0)
(0.00750724 -0.973458 0)
(0.0120598 -0.976946 0)
(0.0165003 -0.978939 0)
(0.0208761 -0.980085 0)
(0.0252907 -0.979799 0)
(0.0299676 -0.976059 0)
(0.0354295 -0.963266 0)
(0.0424187 -0.924861 0)
(0.0526848 -0.819652 0)
(0.00374609 -0.955634 0)
(0.00885036 -0.96712 0)
(0.0142598 -0.970838 0)
(0.0195363 -0.972951 0)
(0.0247375 -0.974117 0)
(0.0299616 -0.973644 0)
(0.0354217 -0.969283 0)
(0.0415914 -0.955009 0)
(0.0491586 -0.914448 0)
(0.058338 -0.812166 0)
(0.00437097 -0.94745 0)
(0.0103889 -0.959629 0)
(0.0167783 -0.963604 0)
(0.0230101 -0.965857 0)
(0.0291505 -0.967063 0)
(0.0352894 -0.966436 0)
(0.0416149 -0.961528 0)
(0.0485191 -0.94605 0)
(0.0564978 -0.904243 0)
(0.0647248 -0.805997 0)
(0.0050829 -0.937871 0)
(0.0121478 -0.950818 0)
(0.0196573 -0.955084 0)
(0.026981 -0.957501 0)
(0.0341927 -0.958778 0)
(0.0413701 -0.958048 0)
(0.0486663 -0.952716 0)
(0.0563621 -0.936401 0)
(0.0646939 -0.894264 0)
(0.0721555 -0.800941 0)
(0.00589153 -0.926701 0)
(0.0141523 -0.940499 0)
(0.0229398 -0.945094 0)
(0.0315097 -0.947704 0)
(0.0399453 -0.949087 0)
(0.0483084 -0.948324 0)
(0.0567079 -0.942732 0)
(0.0652987 -0.926 0)
(0.0740302 -0.884425 0)
(0.0809597 -0.796748 0)
(0.00680502 -0.913722 0)
(0.0164254 -0.928465 0)
(0.0266653 -0.933432 0)
(0.0366532 -0.936262 0)
(0.0464847 -0.93779 0)
(0.0562048 -0.937073 0)
(0.0658713 -0.93141 0)
(0.0755085 -0.914705 0)
(0.084782 -0.874529 0)
(0.0914759 -0.793097 0)
(0.00783263 -0.898697 0)
(0.0189856 -0.914487 0)
(0.0308657 -0.919873 0)
(0.042457 -0.922951 0)
(0.0538723 -0.92466 0)
(0.0651413 -0.92407 0)
(0.076268 -0.91853 0)
(0.08715 -0.90229 0)
(0.0971983 -0.864262 0)
(0.10404 -0.789568 0)
(0.00899113 -0.881375 0)
(0.0218449 -0.898325 0)
(0.0355608 -0.904179 0)
(0.0489486 -0.90753 0)
(0.0621443 -0.909451 0)
(0.0751665 -0.909061 0)
(0.0879684 -0.903827 0)
(0.100332 -0.888449 0)
(0.11146 -0.853198 0)
(0.118908 -0.785618 0)
(0.0102836 -0.86149 0)
(0.0250093 -0.879747 0)
(0.0407553 -0.886109 0)
(0.0561322 -0.889754 0)
(0.0713035 -0.89191 0)
(0.0862849 -0.891778 0)
(0.100985 -0.887006 0)
(0.115091 -0.87282 0)
(0.12765 -0.840828 0)
(0.136216 -0.7806 0)
(0.0116985 -0.838766 0)
(0.028476 -0.858513 0)
(0.0464372 -0.865427 0)
(0.0639854 -0.869385 0)
(0.081315 -0.871788 0)
(0.0984486 -0.871955 0)
(0.115262 -0.86776 0)
(0.131373 -0.855007 0)
(0.145736 -0.826587 0)
(0.155962 -0.773793 0)
(0.0132294 -0.812948 0)
(0.0322313 -0.834396 0)
(0.052577 -0.841916 0)
(0.0724591 -0.846206 0)
(0.0921049 -0.848862 0)
(0.111557 -0.849349 0)
(0.130672 -0.8458 0)
(0.149029 -0.834621 0)
(0.165555 -0.809902 0)
(0.177972 -0.764435 0)
(0.0148696 -0.783793 0)
(0.0362542 -0.807184 0)
(0.0591309 -0.815384 0)
(0.0814808 -0.820035 0)
(0.103564 -0.822951 0)
(0.125458 -0.82376 0)
(0.147017 -0.820881 0)
(0.167815 -0.81131 0)
(0.186808 -0.790241 0)
(0.201889 -0.751786 0)
(0.0166126 -0.751073 0)
(0.0405213 -0.776698 0)
(0.0660465 -0.78568 0)
(0.0909615 -0.790737 0)
(0.115558 -0.793929 0)
(0.139961 -0.795056 0)
(0.164044 -0.792828 0)
(0.187403 -0.784805 0)
(0.209077 -0.767169 0)
(0.22718 -0.735204 0)
(0.0184534 -0.714576 0)
(0.0450111 -0.742784 0)
(0.07327 -0.752694 0)
(0.100805 -0.758236 0)
(0.127936 -0.761739 0)
(0.154851 -0.763185 0)
(0.18146 -0.761565 0)
(0.207409 -0.754956 0)
(0.231858 -0.740404 0)
(0.253182 -0.714226 0)
(0.0203914 -0.674103 0)
(0.0497108 -0.705324 0)
(0.0807552 -0.71637 0)
(0.110921 -0.722521 0)
(0.140547 -0.726406 0)
(0.169908 -0.728189 0)
(0.198961 -0.72713 0)
(0.227424 -0.721761 0)
(0.254604 -0.70986 0)
(0.279159 -0.688639 0)
(0.0224324 -0.629456 0)
(0.0546215 -0.664224 0)
(0.0884716 -0.676703 0)
(0.12123 -0.683649 0)
(0.153255 -0.688036 0)
(0.184923 -0.690211 0)
(0.216254 -0.68968 0)
(0.247053 -0.685369 0)
(0.276785 -0.67566 0)
(0.30439 -0.658518 0)
(0.0245915 -0.580422 0)
(0.0597636 -0.619413 0)
(0.0964106 -0.63374 0)
(0.131676 -0.641748 0)
(0.165939 -0.646817 0)
(0.199707 -0.649485 0)
(0.233078 -0.649484 0)
(0.265946 -0.646074 0)
(0.297933 -0.638127 0)
(0.328246 -0.624216 0)
(0.0268941 -0.526757 0)
(0.0651796 -0.570832 0)
(0.104586 -0.587584 0)
(0.142215 -0.597021 0)
(0.178492 -0.60302 0)
(0.21409 -0.606332 0)
(0.249199 -0.606904 0)
(0.283804 -0.604283 0)
(0.317671 -0.597731 0)
(0.350239 -0.586306 0)
(0.0293777 -0.468161 0)
(0.0709281 -0.518436 0)
(0.113018 -0.538407 0)
(0.152803 -0.549758 0)
(0.190799 -0.556995 0)
(0.227896 -0.561143 0)
(0.264398 -0.562368 0)
(0.300371 -0.560471 0)
(0.335707 -0.555033 0)
(0.370035 -0.545489 0)
(0.0320766 -0.40428 0)
(0.0770684 -0.462207 0)
(0.121699 -0.486452 0)
(0.163336 -0.500329 0)
(0.202676 -0.509167 0)
(0.240892 -0.514363 0)
(0.278415 -0.516337 0)
(0.315386 -0.515134 0)
(0.351792 -0.510604 0)
(0.387407 -0.502482 0)
(0.0350945 -0.334665 0)
(0.083559 -0.402243 0)
(0.130453 -0.432157 0)
(0.17355 -0.449264 0)
(0.2138 -0.460055 0)
(0.252715 -0.466479 0)
(0.290886 -0.469273 0)
(0.328514 -0.468736 0)
(0.365649 -0.464959 0)
(0.402161 -0.457922 0)
(0.0383902 -0.259382 0)
(0.0902348 -0.338751 0)
(0.138711 -0.375693 0)
(0.182741 -0.396981 0)
(0.223475 -0.410178 0)
(0.262712 -0.417978 0)
(0.301215 -0.421601 0)
(0.339238 -0.421664 0)
(0.376863 -0.418498 0)
(0.414008 -0.412294 0)
(0.0394488 -0.176662 0)
(0.0950571 -0.274756 0)
(0.145333 -0.318985 0)
(0.189961 -0.344354 0)
(0.230678 -0.360028 0)
(0.269851 -0.369221 0)
(0.308456 -0.373606 0)
(0.346738 -0.374154 0)
(0.384758 -0.371448 0)
(0.422447 -0.365867 0)
(0.0336571 -0.0887238 0)
(0.0908787 -0.200659 0)
(0.145085 -0.259698 0)
(0.19205 -0.291811 0)
(0.233317 -0.310247 0)
(0.272472 -0.320595 0)
(0.311165 -0.325472 0)
(0.349755 -0.326278 0)
(0.388276 -0.323833 0)
(0.426629 -0.318676 0)
(0.0213617 -0.0203435 0)
(0.0725769 -0.120831 0)
(0.129743 -0.193388 0)
(0.181517 -0.23605 0)
(0.226071 -0.259494 0)
(0.266945 -0.271652 0)
(0.306696 -0.276951 0)
(0.346217 -0.27774 0)
(0.385719 -0.275288 0)
(0.425148 -0.270341 0)
(0.00909127 0.0208027 0)
(0.04677 -0.0492664 0)
(0.0985875 -0.122353 0)
(0.152131 -0.173381 0)
(0.201275 -0.203666 0)
(0.246553 -0.219607 0)
(0.28978 -0.22643 0)
(0.332057 -0.227607 0)
(0.373888 -0.225216 0)
(0.41541 -0.220439 0)
(-0.00448674 0.040865 0)
(0.0219385 0.000382263 0)
(0.0595325 -0.0584267 0)
(0.105558 -0.107815 0)
(0.154694 -0.14096 0)
(0.204098 -0.160449 0)
(0.252657 -0.169953 0)
(0.300109 -0.172782 0)
(0.346541 -0.171328 0)
(0.392114 -0.167222 0)
(-0.0204157 0.0421909 0)
(-0.00752074 0.0195531 0)
(0.0161314 -0.0150857 0)
(0.0488318 -0.0510597 0)
(0.0909076 -0.0786918 0)
(0.139872 -0.0962061 0)
(0.192651 -0.105415 0)
(0.246137 -0.109123 0)
(0.298818 -0.108748 0)
(0.350438 -0.105562 0)
(-0.0254423 0.0118689 0)
(-0.0429262 0.000694359 0)
(-0.0474827 -0.015336 0)
(-0.0223918 -0.0296591 0)
(0.0109426 -0.041098 0)
(0.0557638 -0.0467837 0)
(0.107609 -0.0503534 0)
(0.1683 -0.0530975 0)
(0.229993 -0.0537195 0)
(0.289377 -0.0521552 0)
(-0.0411541 -0.155364 0)
(-0.121637 0.0124598 0)
(-0.10688 0.0182625 0)
(-0.0913463 0.0206588 0)
(-0.0732701 0.0234697 0)
(-0.0513448 0.0251119 0)
(-0.0293288 0.0259566 0)
(-0.00748777 0.0264629 0)
(0.0140104 0.02546 0)
(0.0346778 0.0236768 0)
(0.0549935 0.02205 0)
(0.0741208 0.0198904 0)
(0.0897842 0.016843 0)
(0.102444 0.0134127 0)
(0.111811 0.00981226 0)
(0.117646 0.00666005 0)
(0.11987 0.00330203 0)
(0.118221 -0.000534249 0)
(0.112517 -0.00466009 0)
(0.102424 -0.00889509 0)
(0.0877792 -0.0131295 0)
(0.068679 -0.0169401 0)
(0.0455208 -0.0185865 0)
(0.0203426 -0.0155064 0)
(0.00416908 -0.0079766 0)
(-0.024486 -0.228816 0)
(-0.0741649 -0.0115563 0)
(-0.0806711 0.0194079 0)
(-0.0764202 0.0292123 0)
(-0.0658408 0.0359679 0)
(-0.0512543 0.0406624 0)
(-0.0340752 0.0434209 0)
(-0.0152689 0.0442856 0)
(0.00415103 0.0429421 0)
(0.0229594 0.040378 0)
(0.040248 0.0371151 0)
(0.0555877 0.032669 0)
(0.0687196 0.0269646 0)
(0.0794365 0.0206307 0)
(0.0875452 0.0140457 0)
(0.0929081 0.0073249 0)
(0.09548 0.000409175 0)
(0.0955011 -0.00671821 0)
(0.0929743 -0.0141567 0)
(0.0877923 -0.0219926 0)
(0.0797755 -0.0300919 0)
(0.0685844 -0.0378037 0)
(0.0541681 -0.0430028 0)
(0.033865 -0.0416027 0)
(0.0131389 -0.0302564 0)
(-0.00408567 -0.303708 0)
(-0.0540053 -0.0436284 0)
(-0.0677183 0.0143962 0)
(-0.0688699 0.0358098 0)
(-0.0626793 0.0490231 0)
(-0.0517104 0.0578869 0)
(-0.0376829 0.0632176 0)
(-0.0219762 0.0653882 0)
(-0.00521184 0.064747 0)
(0.0119069 0.061765 0)
(0.0276898 0.0567384 0)
(0.041323 0.0499165 0)
(0.0528281 0.0416175 0)
(0.0621466 0.0324407 0)
(0.0691023 0.0228202 0)
(0.0736687 0.0130051 0)
(0.0758923 0.0030459 0)
(0.075883 -0.00717403 0)
(0.0737721 -0.0178128 0)
(0.0696652 -0.0289879 0)
(0.063622 -0.0406634 0)
(0.0555228 -0.0523425 0)
(0.0451827 -0.0622549 0)
(0.0312969 -0.0658017 0)
(0.0154382 -0.0563601 0)
(0.00687208 -0.376764 0)
(-0.0463869 -0.0823077 0)
(-0.0645703 0.00370361 0)
(-0.068582 0.0386345 0)
(-0.0647421 0.0594414 0)
(-0.0556863 0.0732965 0)
(-0.0434443 0.0818527 0)
(-0.0293813 0.0859212 0)
(-0.0143972 0.086231 0)
(0.000866285 0.0826906 0)
(0.0152488 0.0755381 0)
(0.0278167 0.0658527 0)
(0.0383674 0.0546284 0)
(0.0468246 0.0424434 0)
(0.0530198 0.0297848 0)
(0.0570129 0.0169897 0)
(0.0589416 0.00419566 0)
(0.0589642 -0.00863081 0)
(0.0572384 -0.0216533 0)
(0.0539066 -0.0350661 0)
(0.04908 -0.0489803 0)
(0.0427689 -0.0631949 0)
(0.034766 -0.0765349 0)
(0.0246744 -0.0851741 0)
(0.0144029 -0.0859389 0)
(0.0160334 -0.437564 0)
(-0.0380186 -0.130571 0)
(-0.0621679 -0.0141467 0)
(-0.0696328 0.037409 0)
(-0.0686079 0.0673397 0)
(-0.0612074 0.0866444 0)
(-0.0505245 0.0985481 0)
(-0.0377623 0.104462 0)
(-0.0241377 0.105214 0)
(-0.0105192 0.101069 0)
(0.00244095 0.0925126 0)
(0.0141692 0.080649 0)
(0.0241426 0.0667518 0)
(0.0320156 0.0516821 0)
(0.0377073 0.0361617 0)
(0.0413518 0.0206797 0)
(0.0431774 0.00543706 0)
(0.0434069 -0.00960709 0)
(0.0422199 -0.0246386 0)
(0.0397631 -0.0398816 0)
(0.0361475 -0.0555015 0)
(0.0314182 -0.0714352 0)
(0.025408 -0.08691 0)
(0.0176233 -0.099264 0)
(0.0114383 -0.105499 0)
(0.0247542 -0.486053 0)
(-0.026969 -0.183179 0)
(-0.0547438 -0.0392315 0)
(-0.0679021 0.0309527 0)
(-0.0704553 0.0717713 0)
(-0.0657504 0.0972927 0)
(-0.0572448 0.113008 0)
(-0.0463938 0.120946 0)
(-0.0343451 0.122293 0)
(-0.0220127 0.117775 0)
(-0.0100781 0.108147 0)
(0.000846158 0.0944862 0)
(0.0101851 0.078096 0)
(0.0175469 0.0602557 0)
(0.0228545 0.042048 0)
(0.026294 0.0241647 0)
(0.0281681 0.00685603 0)
(0.0287524 -0.00996315 0)
(0.0282397 -0.0265539 0)
(0.0267661 -0.0432089 0)
(0.0244246 -0.06015 0)
(0.0212601 -0.0773845 0)
(0.0171949 -0.0943501 0)
(0.0114693 -0.109243 0)
(0.00813822 -0.118687 0)
(0.0306298 -0.523683 0)
(-0.013496 -0.23414 0)
(-0.043184 -0.071465 0)
(-0.0614721 0.018048 0)
(-0.0682055 0.0710867 0)
(-0.0676643 0.104075 0)
(-0.0622002 0.124237 0)
(-0.0539798 0.134771 0)
(-0.0440262 0.137372 0)
(-0.0332861 0.133051 0)
(-0.0224806 0.122665 0)
(-0.0123686 0.107382 0)
(-0.00360573 0.088705 0)
(0.00336763 0.0682778 0)
(0.00843776 0.0476028 0)
(0.0118183 0.0276229 0)
(0.0138773 0.008629 0)
(0.0149375 -0.00955355 0)
(0.0151982 -0.0272977 0)
(0.014782 -0.0449802 0)
(0.0137657 -0.0628827 0)
(0.0121917 -0.0810727 0)
(0.0100609 -0.0991256 0)
(0.0064085 -0.115729 0)
(0.00562695 -0.127196 0)
(0.0352416 -0.553406 0)
(-0.000255061 -0.279566 0)
(-0.0307108 -0.105791 0)
(-0.0517936 -0.000809457 0)
(-0.0628835 0.064263 0)
(-0.0665865 0.105568 0)
(-0.0650836 0.131114 0)
(-0.0600564 0.145051 0)
(-0.0527625 0.149627 0)
(-0.0441654 0.146224 0)
(-0.0347929 0.135747 0)
(-0.0255452 0.119343 0)
(-0.0172436 0.0987375 0)
(-0.0104673 0.0759744 0)
(-0.00544121 0.0530383 0)
(-0.00195984 0.0312236 0)
(0.000400185 0.0108867 0)
(0.00201571 -0.00827712 0)
(0.00310008 -0.0268002 0)
(0.0037669 -0.0451576 0)
(0.00408115 -0.0636825 0)
(0.004083 -0.0824857 0)
(0.00381591 -0.101246 0)
(0.0022092 -0.118927 0)
(0.00353636 -0.131605 0)
(0.0396242 -0.576753 0)
(0.0109601 -0.319792 0)
(-0.0185156 -0.140745 0)
(-0.0410995 -0.0241405 0)
(-0.0557079 0.0518998 0)
(-0.0635138 0.101473 0)
(-0.0659794 0.132993 0)
(-0.0647334 0.151076 0)
(-0.0605244 0.15837 0)
(-0.0546823 0.15678 0)
(-0.0471606 0.147187 0)
(-0.0388574 0.130455 0)
(-0.0308765 0.108476 0)
(-0.0239902 0.0836729 0)
(-0.0187028 0.0586439 0)
(-0.0149197 0.0351749 0)
(-0.0121594 0.0137547 0)
(-0.00995586 -0.00607556 0)
(-0.00804945 -0.0250476 0)
(-0.00632373 -0.0437584 0)
(-0.00472163 -0.0625927 0)
(-0.00320626 -0.0816942 0)
(-0.00174439 -0.100829 0)
(-0.00135859 -0.119119 0)
(0.00155561 -0.132469 0)
(0.0440594 -0.595315 0)
(0.0206171 -0.355308 0)
(-0.00704337 -0.175069 0)
(-0.0304388 -0.0502727 0)
(-0.0478046 0.0348876 0)
(-0.0593018 0.0922169 0)
(-0.065843 0.129649 0)
(-0.0685219 0.152301 0)
(-0.0679858 0.162692 0)
(-0.0649066 0.164133 0)
(-0.0598578 0.156672 0)
(-0.0526811 0.140745 0)
(-0.0449524 0.118265 0)
(-0.0375662 0.0918686 0)
(-0.0315254 0.0648418 0)
(-0.0270912 0.0397212 0)
(-0.0237789 0.0173348 0)
(-0.0209562 -0.00292517 0)
(-0.0182537 -0.0220606 0)
(-0.0155243 -0.0408334 0)
(-0.0127037 -0.0596926 0)
(-0.00975979 -0.0788202 0)
(-0.00672069 -0.0980736 0)
(-0.00442859 -0.116703 0)
(-0.000220478 -0.130279 0)
(0.0485458 -0.61023 0)
(0.0290983 -0.386653 0)
(0.00344528 -0.208259 0)
(-0.0203203 -0.0782963 0)
(-0.0398051 0.0139233 0)
(-0.054527 0.0779909 0)
(-0.0648814 0.12106 0)
(-0.0715152 0.148304 0)
(-0.075006 0.163014 0)
(-0.0750601 0.167334 0)
(-0.0729297 0.16352 0)
(-0.0674657 0.149977 0)
(-0.0602101 0.128373 0)
(-0.0520395 0.101217 0)
(-0.0445556 0.0723195 0)
(-0.0387976 0.0452862 0)
(-0.0345861 0.0217721 0)
(-0.0310508 0.00116206 0)
(-0.0275658 -0.0179142 0)
(-0.0238918 -0.0364817 0)
(-0.0199272 -0.0550954 0)
(-0.015642 -0.073998 0)
(-0.0111324 -0.093166 0)
(-0.00706973 -0.112005 0)
(-0.0018671 -0.125374 0)
(0.0534443 -0.622554 0)
(0.0367783 -0.414617 0)
(0.0129523 -0.240214 0)
(-0.0109219 -0.107558 0)
(-0.0320375 -0.0102443 0)
(-0.0495356 0.0593585 0)
(-0.0633779 0.107471 0)
(-0.0738219 0.139142 0)
(-0.0811279 0.158218 0)
(-0.0853788 0.16671 0)
(-0.0862341 0.166909 0)
(-0.0837111 0.157345 0)
(-0.0775529 0.138644 0)
(-0.0688139 0.112351 0)
(-0.0592853 0.0821725 0)
(-0.0510508 0.0527675 0)
(-0.0450142 0.0275154 0)
(-0.0404421 0.00630566 0)
(-0.036112 -0.012642 0)
(-0.0315228 -0.0308023 0)
(-0.0264778 -0.0489268 0)
(-0.0209121 -0.0673684 0)
(-0.0149475 -0.0862785 0)
(-0.00922705 -0.105283 0)
(-0.00307126 -0.11817 0)
(0.0586926 -0.633199 0)
(0.0440171 -0.439962 0)
(0.0216932 -0.271058 0)
(-0.00215368 -0.13772 0)
(-0.0245985 -0.0370233 0)
(-0.0445097 0.0368607 0)
(-0.0614935 0.0892604 0)
(-0.075532 0.124922 0)
(-0.086754 0.14785 0)
(-0.0950924 0.160922 0)
(-0.0998366 0.165659 0)
(-0.101312 0.161364 0)
(-0.0975364 0.147955 0)
(-0.0893777 0.125209 0)
(-0.0781628 0.0956693 0)
(-0.0662192 0.0639868 0)
(-0.0564631 0.0356568 0)
(-0.0496714 0.0129682 0)
(-0.0441686 -0.00613856 0)
(-0.0385769 -0.0238226 0)
(-0.0324689 -0.041241 0)
(-0.0256046 -0.0589263 0)
(-0.0179996 -0.0772159 0)
(-0.0103521 -0.0962192 0)
(-0.00322556 -0.109786 0)
(0.0645831 -0.642816 0)
(0.0512868 -0.463379 0)
(0.0301046 -0.300998 0)
(0.00630703 -0.168617 0)
(-0.0172464 -0.0660396 0)
(-0.0392011 0.0109432 0)
(-0.0589271 0.0668337 0)
(-0.076215 0.105997 0)
(-0.0910329 0.132478 0)
(-0.10328 0.149413 0)
(-0.112566 0.158618 0)
(-0.118431 0.160967 0)
(-0.119501 0.153814 0)
(-0.114117 0.137755 0)
(-0.103415 0.112615 0)
(-0.0886307 0.0813534 0)
(-0.0731122 0.0491776 0)
(-0.0609817 0.0225044 0)
(-0.0526035 0.00211455 0)
(-0.0455076 -0.0152947 0)
(-0.0382451 -0.0319376 0)
(-0.0300428 -0.0486781 0)
(-0.0202986 -0.0661182 0)
(-0.00997934 -0.0848129 0)
(-0.00509279 -0.101477 0)
(0.0715397 -0.651885 0)
(0.0591545 -0.485429 0)
(0.0388472 -0.330232 0)
(0.015036 -0.200138 0)
(-0.00941138 -0.0969159 0)
(-0.0330279 -0.0178678 0)
(-0.055047 0.040723 0)
(-0.0751376 0.0827908 0)
(-0.0931638 0.112297 0)
(-0.109011 0.132571 0)
(-0.122442 0.145641 0)
(-0.132916 0.152552 0)
(-0.139854 0.154056 0)
(-0.140977 0.145532 0)
(-0.134536 0.128997 0)
(-0.121505 0.103633 0)
(-0.102836 0.0723049 0)
(-0.082435 0.040208 0)
(-0.0660852 0.0140122 0)
(-0.0545893 -0.00539446 0)
(-0.0447872 -0.0213766 0)
(-0.0343554 -0.0365553 0)
(-0.0206298 -0.0517702 0)
(-0.00132235 -0.0671796 0)
(0.0158773 -0.0852041 0)
(0.0799869 -0.660664 0)
(0.0682314 -0.506629 0)
(0.0485405 -0.35902 0)
(0.024724 -0.232087 0)
(-0.000377045 -0.129254 0)
(-0.0252638 -0.0489737 0)
(-0.0490656 0.0116259 0)
(-0.0713501 0.0560109 0)
(-0.0919684 0.0879677 0)
(-0.110866 0.110983 0)
(-0.127991 0.127121 0)
(-0.14294 0.137729 0)
(-0.155114 0.143704 0)
(-0.163875 0.145176 0)
(-0.166319 0.137626 0)
(-0.160669 0.122801 0)
(-0.147281 0.0999836 0)
(-0.126556 0.0714318 0)
(-0.101698 0.0412998 0)
(-0.0786055 0.0148026 0)
(-0.0611694 -0.00486415 0)
(-0.0460203 -0.0182912 0)
(-0.0314237 -0.0264876 0)
(-0.0163609 -0.027212 0)
(-0.00126882 -0.0157022 0)
(0.0903489 -0.669183 0)
(0.0791412 -0.527052 0)
(0.0599653 -0.387508 0)
(0.0362761 -0.264479 0)
(0.0106997 -0.162684 0)
(-0.0151021 -0.0817869 0)
(-0.0401548 -0.0196822 0)
(-0.0639636 0.0265503 0)
(-0.0862858 0.0603202 0)
(-0.107469 0.0852585 0)
(-0.127627 0.103736 0)
(-0.146043 0.117015 0)
(-0.162694 0.126146 0)
(-0.177282 0.131578 0)
(-0.188371 0.132973 0)
(-0.194498 0.128049 0)
(-0.193437 0.116515 0)
(-0.184884 0.0989621 0)
(-0.168387 0.0762687 0)
(-0.147132 0.0525988 0)
(-0.125676 0.0317729 0)
(-0.108307 0.0137548 0)
(-0.0999207 -0.00452461 0)
(-0.104258 -0.0279695 0)
(-0.127787 -0.0658365 0)
(0.103086 -0.677336 0)
(0.0925257 -0.546754 0)
(0.073982 -0.415517 0)
(0.0505245 -0.297009 0)
(0.0246949 -0.196847 0)
(-0.00172194 -0.115787 0)
(-0.027647 -0.0524723 0)
(-0.0524743 -0.00460494 0)
(-0.0758415 0.0306937 0)
(-0.0981031 0.0567134 0)
(-0.119642 0.0765617 0)
(-0.140323 0.0917545 0)
(-0.159777 0.102972 0)
(-0.177943 0.11083 0)
(-0.194722 0.115299 0)
(-0.209371 0.116058 0)
(-0.22073 0.112337 0)
(-0.226843 0.101682 0)
(-0.229897 0.0847534 0)
(-0.228377 0.0607505 0)
(-0.225202 0.0325249 0)
(-0.223448 0.00167387 0)
(-0.225116 -0.0314449 0)
(-0.2316 -0.0680497 0)
(-0.240339 -0.10953 0)
(0.118569 -0.684753 0)
(0.10891 -0.56555 0)
(0.0912215 -0.442869 0)
(0.0682114 -0.329399 0)
(0.0424009 -0.231405 0)
(0.0156508 -0.150583 0)
(-0.0108485 -0.0862923 0)
(-0.0363478 -0.036794 0)
(-0.0604219 0.000279572 0)
(-0.0829665 0.0276591 0)
(-0.104418 0.0482904 0)
(-0.125237 0.064293 0)
(-0.145395 0.076734 0)
(-0.164829 0.085853 0)
(-0.183446 0.0918 0)
(-0.201314 0.0944911 0)
(-0.218213 0.093314 0)
(-0.233392 0.0873465 0)
(-0.245812 0.0758984 0)
(-0.254862 0.0584241 0)
(-0.260053 0.0349236 0)
(-0.26239 0.00628564 0)
(-0.263107 -0.0262111 0)
(-0.257948 -0.0602213 0)
(-0.248331 -0.0920345 0)
(0.137035 -0.690877 0)
(0.128707 -0.582999 0)
(0.112234 -0.469202 0)
(0.0900284 -0.3613 0)
(0.064576 -0.265987 0)
(0.0378157 -0.185788 0)
(0.0110718 -0.120745 0)
(-0.01478 -0.06965 0)
(-0.0391877 -0.0305662 0)
(-0.0619279 -0.00114589 0)
(-0.0831265 0.0209652 0)
(-0.103039 0.0379204 0)
(-0.122114 0.0510465 0)
(-0.140583 0.0608855 0)
(-0.15837 0.0675791 0)
(-0.175419 0.0710443 0)
(-0.191627 0.071151 0)
(-0.206578 0.0673934 0)
(-0.2197 0.0593032 0)
(-0.230298 0.0465497 0)
(-0.237466 0.0292698 0)
(-0.24028 0.0080861 0)
(-0.237834 -0.015865 0)
(-0.229057 -0.040676 0)
(-0.213257 -0.0630731 0)
(0.158555 -0.694998 0)
(0.152136 -0.598457 0)
(0.137416 -0.49394 0)
(0.116515 -0.392191 0)
(0.0918575 -0.300117 0)
(0.0654687 -0.220948 0)
(0.0388196 -0.155411 0)
(0.0129128 -0.1028 0)
(-0.0115966 -0.0616368 0)
(-0.0343694 -0.0299619 0)
(-0.0553753 -0.00569748 0)
(-0.074794 0.0129739 0)
(-0.0929025 0.0273278 0)
(-0.109908 0.0382232 0)
(-0.125856 0.0460176 0)
(-0.140636 0.0508021 0)
(-0.154153 0.0524609 0)
(-0.16622 0.0507475 0)
(-0.176469 0.0454063 0)
(-0.184304 0.0362898 0)
(-0.18903 0.0238555 0)
(-0.189881 0.0089551 0)
(-0.186243 -0.00746734 0)
(-0.177682 -0.0242883 0)
(-0.164378 -0.0400189 0)
(0.182986 -0.696283 0)
(0.179161 -0.611086 0)
(0.166889 -0.51629 0)
(0.147953 -0.421367 0)
(0.124666 -0.333199 0)
(0.0991203 -0.255569 0)
(0.0729296 -0.189864 0)
(0.0472344 -0.135932 0)
(0.0227929 -0.0927213 0)
(3.68174e-05 -0.0586988 0)
(-0.020887 -0.0321286 0)
(-0.0400481 -0.011367 0)
(-0.0576178 0.00488642 0)
(-0.0737472 0.017533 0)
(-0.0884765 0.0270689 0)
(-0.10173 0.0336558 0)
(-0.113307 0.0372759 0)
(-0.123016 0.0379362 0)
(-0.130761 0.0354254 0)
(-0.136298 0.0296725 0)
(-0.139191 0.021224 0)
(-0.139111 0.0108627 0)
(-0.135814 -0.000650713 0)
(-0.129285 -0.0125871 0)
(-0.119831 -0.0242112 0)
(0.20994 -0.693836 0)
(0.209434 -0.619895 0)
(0.200427 -0.535252 0)
(0.184278 -0.447911 0)
(0.163106 -0.364454 0)
(0.139021 -0.289048 0)
(0.113755 -0.22367 0)
(0.0885934 -0.168743 0)
(0.0644159 -0.123697 0)
(0.0417526 -0.0873909 0)
(0.0208482 -0.0584212 0)
(0.00173769 -0.0353738 0)
(-0.0156719 -0.0170026 0)
(-0.0314953 -0.00233523 0)
(-0.0457603 0.00926863 0)
(-0.0583812 0.018102 0)
(-0.0692229 0.0241437 0)
(-0.078122 0.0272975 0)
(-0.0850165 0.0275022 0)
(-0.0898595 0.0247618 0)
(-0.0924562 0.0195237 0)
(-0.0926582 0.0125457 0)
(-0.0904237 0.00446046 0)
(-0.0858224 -0.00421417 0)
(-0.0790901 -0.0129933 0)
(0.238781 -0.686804 0)
(0.242276 -0.623829 0)
(0.237392 -0.549657 0)
(0.224984 -0.470676 0)
(0.206856 -0.392873 0)
(0.185043 -0.320568 0)
(0.161353 -0.256234 0)
(0.137205 -0.200842 0)
(0.113615 -0.154329 0)
(0.0912395 -0.115983 0)
(0.0704275 -0.0847366 0)
(0.0512966 -0.0594045 0)
(0.0338165 -0.0388505 0)
(0.0179114 -0.0220841 0)
(0.00358462 -0.00834336 0)
(-0.00904301 0.00276816 0)
(-0.0199176 0.011267 0)
(-0.0289825 0.0170117 0)
(-0.0362157 0.0198035 0)
(-0.041534 0.0197022 0)
(-0.0448122 0.017279 0)