/*--------------------------------*- C++ -*----------------------------------*\
| =========                 |                                                 |
| \\      /  F ield         | OpenFOAM: The Open Source CFD Toolbox           |
|  \\    /   O peration     | Version:  v2012                                 |
|   \\  /    A nd           | Website:  www.openfoam.com                      |
|    \\/     M anipulation  |                                                 |
\*---------------------------------------------------------------------------*/
FoamFile
{
    version     2.0;
    format      ascii;
    class       volScalarField;
    location    "567";
    object      age;
}
// * * * * * * * * * * * * * * * * * * * * * * * * * * * * * * * * * * * * * //

dimensions      [0 0 1 0 0 0 0];


internalField   nonuniform List<scalar> 
6018
(
0.659807
0.607309
0.559825
0.516102
0.475258
0.43666
0.399846
0.364497
0.330396
0.297391
0.265374
0.234267
0.204011
0.17456
0.145873
0.117914
0.0906465
0.0640318
0.0380308
0.0125987
0.516485
0.482755
0.451621
0.421415
0.392541
0.365251
0.338554
0.312409
0.286638
0.261154
0.235885
0.210782
0.185807
0.160936
0.136145
0.111412
0.0867118
0.062017
0.0372863
0.0124683
0.466751
0.442527
0.418692
0.395079
0.371695
0.348396
0.325065
0.301688
0.278239
0.254703
0.231069
0.207327
0.183465
0.159474
0.135347
0.111079
0.0866629
0.0620923
0.0373654
0.0124879
0.460233
0.437924
0.41549
0.392928
0.37023
0.347397
0.324433
0.301337
0.278106
0.254735
0.231221
0.207558
0.183742
0.159768
0.13563
0.111325
0.08685
0.06221
0.0374159
0.0124941
0.460089
0.437778
0.41536
0.392828
0.370176
0.347397
0.324487
0.301438
0.278245
0.254903
0.231407
0.207751
0.183931
0.159942
0.135779
0.111441
0.0869305
0.0622552
0.0374322
0.0124955
0.459443
0.437215
0.414897
0.392461
0.369892
0.347183
0.324327
0.301321
0.278161
0.254843
0.231365
0.207723
0.183913
0.159931
0.135773
0.111438
0.0869287
0.0622544
0.037432
0.0124955
0.458818
0.436735
0.414517
0.392144
0.369608
0.346912
0.324057
0.301048
0.277891
0.254579
0.23111
0.207482
0.183692
0.159737
0.135612
0.111314
0.0868448
0.0622079
0.0374153
0.0124941
0.459352
0.437435
0.415242
0.39279
0.370114
0.34725
0.324247
0.301115
0.277842
0.254435
0.230892
0.207211
0.18339
0.159426
0.135319
0.111064
0.0866553
0.0620893
0.0373646
0.0124878
0.478778
0.456238
0.432522
0.408202
0.383839
0.359648
0.334979
0.310152
0.285228
0.260282
0.23535
0.210458
0.185617
0.160829
0.136088
0.111384
0.0866998
0.062013
0.0372856
0.0124683
0.589778
0.562489
0.530298
0.496907
0.462705
0.428516
0.39461
0.36116
0.328291
0.296079
0.264569
0.233784
0.20373
0.174402
0.14579
0.117873
0.0906291
0.0640255
0.0380292
0.0125985
43.1525
42.7585
43.0948
43.5948
44.3129
45.4106
47.0712
49.1416
52.9449
52.9422
51.7786
50.5867
49.7709
49.5512
49.8605
50.336
50.8375
51.3757
51.8068
52.3294
52.6601
53.3862
54.1941
55.1827
56.0995
13.5896
1.93807
1.66557
1.31172
1.12199
0.98009
0.87412
0.789569
0.719569
39.1574
39.3284
39.5508
39.9566
40.5777
41.4213
42.503
43.7276
44.7388
44.934
44.4817
44.114
44.0061
44.1215
44.3687
44.767
45.2452
45.6709
46.0834
48.2027
51.4917
44.8418
27.2364
15.2472
7.43463
1.9953
1.07404
1.02196
0.867297
0.781429
0.707117
0.647867
0.597609
0.554387
40.0797
41.2742
41.6642
41.4674
41.1855
41.1979
41.3062
41.6109
42.0035
42.3202
42.5558
42.7871
43.1161
43.4598
43.7774
44.0762
45.0547
45.7604
43.2973
34.2835
21.84
10.3854
3.59466
1.23599
0.988532
0.855525
0.765671
0.715406
0.658666
0.618213
0.580986
0.54772
0.518636
0.491941
47.2953
50.5102
51.6439
50.5156
47.8959
45.1047
43.2136
42.3602
42.2903
42.5245
42.9653
43.5397
44.2017
44.6144
45.205
44.6571
41.7044
32.7374
20.032
8.95356
3.09193
0.998982
0.902837
0.800414
0.746117
0.70113
0.662584
0.631037
0.602062
0.575809
0.550869
0.52742
0.504962
0.482562
60.5123
65.5504
66.9006
64.8307
60.2755
54.7122
49.7462
46.3622
44.7363
44.3755
44.7225
45.1679
46.2892
45.5685
42.5188
34.2802
22.171
10.3829
3.58017
1.0066
0.920245
0.809449
0.766511
0.723929
0.692372
0.663516
0.63791
0.615063
0.592971
0.570887
0.548966
0.526958
0.504775
0.482424
78.4791
84.9218
85.9566
82.1598
75.079
66.6315
58.7215
52.758
49.2297
47.5872
46.8075
46.5751
44.5239
37.7432
26.5478
14.231
5.45311
1.53415
0.949197
0.846588
0.801761
0.759681
0.73074
0.705332
0.681698
0.659233
0.6375
0.615769
0.593745
0.571466
0.549084
0.526627
0.504176
0.481749
99.0684
106.077
106.026
99.8045
89.5849
77.93
67.0824
58.6335
52.7787
49.5797
47.8559
42.1655
32.4269
20.0851
9.20125
2.96808
1.02725
0.931985
0.837
0.804006
0.773627
0.749989
0.727013
0.705366
0.683373
0.661326
0.638892
0.616158
0.593346
0.570596
0.54798
0.525519
0.503192
0.480942
119.092
125.617
123.688
114.569
100.942
86.0122
72.3479
61.307
53.9431
48.5198
40.0298
27.9722
15.7044
6.13373
1.82259
0.984862
0.890997
0.847635
0.816761
0.796682
0.773439
0.752794
0.730588
0.708185
0.685048
0.661616
0.638058
0.614673
0.591617
0.568951
0.546679
0.524716
0.502912
0.481135
135.945
140.963
136.31
123.927
106.889
88.8489
72.7284
60.2177
50.3605
38.8225
25.0438
12.5622
4.36508
1.22214
0.990765
0.893417
0.863779
0.842342
0.824604
0.803224
0.77948
0.755083
0.729985
0.704959
0.680301
0.656463
0.633673
0.612145
0.592063
0.573813
0.556606
0.538668
0.519974
0.500174
147.717
151.045
142.998
126.44
106.153
85.8641
68.4221
53.7655
39.0678
23.6477
10.8053
3.42719
1.08432
0.982307
0.908849
0.884962
0.865321
0.841763
0.815047
0.785576
0.759484
0.742176
0.723907
0.706507
0.69025
0.675082
0.662188
0.6529
0.646871
0.643158
0.640403
0.637205
0.63135
0.619888
63.836
56.7415
54.3752
51.392
47.5125
44.5729
63.3788
58.0056
56.4694
48.1989
41.9838
39.3985
64.7382
63.1509
51.5779
41.8258
38.096
38.7071
66.5707
57.6688
42.504
37.521
39.2471
42.9932
69.5591
44.8922
36.9567
39.0898
45.1614
52.998
41.8762
36.0734
37.5669
44.5084
55.728
67.9135
34.4002
35.3502
41.0111
53.7456
70.0667
86.179
34.021
36.4313
47.0136
65.2181
86.0259
105.03
33.8561
38.5574
54.6235
77.5807
101.627
122.097
33.739
41.7174
62.6927
88.9924
114.848
135.361
153.433
152.467
141.6
121.354
98.7863
77.3049
58.1721
40.1785
23.1789
9.88982
2.94595
1.05519
0.974508
0.926599
0.904416
0.887191
0.863555
0.843112
0.831009
0.827623
0.85515
0.935754
1.11387
1.46584
2.12703
3.35646
5.61756
9.66595
16.05
24.0804
33.866
45.1538
56.6002
64.9419
154.527
148.19
132.414
109.562
85.6965
63.0157
42.0342
23.4121
9.53987
2.67447
1.05534
0.983294
0.94968
0.926402
0.911719
0.895232
0.885144
0.89544
0.954127
1.12045
1.47941
2.20366
3.74091
7.00826
13.0574
21.814
33.1983
46.1911
58.6182
67.523
75.708
81.5036
87.218
96.7131
147.134
136.818
117.256
92.8117
68.0203
44.692
24.5172
9.8334
2.66305
1.05874
0.999502
0.974232
0.9538
0.937759
0.928153
0.933092
0.986094
1.15348
1.53765
2.40476
4.50702
9.28027
17.292
28.7279
42.3152
55.5328
66.2225
72.5074
75.4464
75.5243
75.6445
76.6709
82.6962
97.2
134.313
120.131
97.9134
72.5285
47.7744
26.2518
10.6253
2.87379
1.09329
1.01725
0.999264
0.981612
0.965081
0.959426
0.983213
1.09331
1.38517
2.1083
4.09672
8.8348
17.2465
29.4496
43.6237
57.823
68.4314
73.6824
75.4668
75.2307
75.0278
75.052
75.435
78.4238
86.8464
99.5157
117.383
99.8523
76.0199
50.9023
28.463
11.869
3.29654
1.16929
1.0423
1.02397
1.00808
0.990718
0.986914
1.03028
1.19309
1.61913
2.94251
6.64083
13.9225
25.2838
39.5399
54.6781
67.1497
73.7124
75.9541
75.2681
74.7609
74.653
74.7452
75.1206
76.9443
81.9828
90.5266
101.67
97.6055
77.6655
53.7147
30.9989
13.5565
3.94214
1.2794
1.07548
1.04918
1.03428
1.01625
1.01358
1.06666
1.25131
1.85059
4.0664
9.30729
18.6343
31.5846
46.8757
61.4699
71.8243
75.8002
75.856
75.063
74.5491
74.4055
74.5698
75.0187
77.2088
81.8582
88.6432
96.445
104.326
76.5049
55.646
33.6774
15.7001
4.85335
1.43158
1.11792
1.07532
1.0596
1.04106
1.03625
1.08991
1.28686
2.1403
5.12984
11.6702
22.1213
36.0635
51.4356
65.2728
73.9572
76.8433
75.8786
74.7433
74.1672
74.1285
74.3993
75.8643
79.7298
86.0061
93.1265
99.6204
104.168
107.252
55.9336
36.0739
18.0801
6.07864
1.64157
1.17213
1.10396
1.08386
1.06653
1.06012
1.1051
1.28468
2.38344
5.94132
13.298
24.5062
38.7864
53.9938
66.9327
74.2671
75.9202
74.9625
74.1102
73.738
73.955
75.1909
78.9822
85.9727
95.2396
104.366
111.228
114.51
113.322
110.377
37.6042
20.4758
7.65963
2.05602
1.23847
1.13773
1.11049
1.09502
1.08513
1.10456
1.19682
2.49089
6.41439
14.1929
25.8663
40.341
55.359
67.6244
73.7446
74.5936
73.947
73.4488
73.4002
74.2851
77.6918
84.9608
96.4033
110.152
123.327
132.688
136.029
132.748
123.214
113.282
22.6597
9.64432
2.79812
1.34498
1.17988
1.13884
1.12255
1.10869
1.11157
1.17175
2.3864
6.5556
14.4485
26.4096
41.1809
56.2962
68.2467
73.4754
73.8752
73.341
72.9314
73.2033
75.084
80.9518
92.3169
108.974
129.081
149.063
164.185
170.395
166.159
152.479
132.576
116.108
12.0113
3.93837
1.53041
1.23648
1.17104
1.14918
1.1323
1.12501
1.17303
2.14992
6.16771
14.1922
26.2888
41.5445
57.1519
69.1739
73.9363
73.9328
73.1056
72.5289
72.7014
74.6817
82.0438
96.7851
118.768
146.081
174.556
198.723
212.639
212.248
196.601
170.018
139.608
117.879
5.53539
1.83385
1.31917
1.2105
1.17703
1.15688
1.14333
1.18039
1.8334
5.39254
13.3329
25.6116
41.4071
57.8277
70.2696
75.0228
74.4583
73.4577
72.4715
72.2426
72.9112
78.6702
93.319
117.408
149.646
185.362
218.207
243.055
254.281
245.864
219.018
181.239
142.897
118.402
2.55295
1.43415
1.26144
1.20749
1.18231
1.16571
1.1929
1.48687
4.37347
11.9022
24.2222
40.5227
57.8369
71.0641
76.4451
76.0607
75.296
73.6738
72.3369
72.1371
73.1536
81.7898
100.298
130.008
168.167
207.304
240.526
265.224
276.528
262.758
228.077
183.454
141.836
118.744
1.66366
1.33506
1.24529
1.21287
1.19059
1.18845
1.25557
3.24391
9.98671
22.0105
38.6466
56.9412
71.5127
78.2414
79.065
78.696
77.3057
75.1331
73.0279
71.9851
72.6549
79.2489
96.3941
125.666
164.375
204.249
237.791
262.729
273.267
258.41
222.238
177.264
137.878
119.095
1.45285
1.29787
1.24484
1.21725
1.20476
1.2627
2.20067
7.64015
18.982
35.5729
54.802
71.19
80.0609
82.6978
83.6305
83.4622
81.6862
78.8446
75.5893
72.9602
71.8886
74.2595
84.9232
107.961
142.877
182.349
216.22
239.592
249.407
237.394
205.442
165.734
132.839
119.5
1.3768
1.28585
1.24757
1.22587
1.24981
1.4666
5.0896
15.2009
31.2524
51.1179
69.596
81.3203
86.4549
89.3901
91.3747
91.4464
89.6265
86.1001
81.466
76.7179
73.2045
71.8163
74.9542
87.3999
113.379
149.384
184.179
207.188
216.209
208.889
184.134
152.879
128.258
120.016
1.3451
1.2851
1.25501
1.2496
1.32536
2.95061
10.9001
25.7762
45.7146
66.1791
81.2457
89.4871
94.8748
99.6064
102.628
103.372
101.689
97.6588
91.7972
84.9726
78.4108
73.6602
71.7561
74.5876
87.1618
114.039
148.19
174.963
184.896
181.088
164.006
141.619
125.172
120.706
1.33451
1.2881
1.26706
1.30273
1.63566
6.49705
19.4405
38.6287
60.5162
79.0545
90.9371
99.0423
106.644
113.165
117.456
119.058
117.682
113.417
106.672
98.1713
88.9632
80.4154
74.1899
71.6742
73.7623
85.8055
112.363
143.219
160.371
158.96
148.69
133.774
123.936
121.888
1.33354
1.29684
1.29445
1.37817
3.18216
12.6633
30.177
52.4312
74.0552
89.9968
101.124
111.399
121.401
129.653
135.302
137.798
136.888
132.652
125.403
115.732
104.507
92.8872
82.3384
74.591
71.4477
72.8979
84.4898
110.609
138
145.623
138.969
129.637
124.35
124.281
1.33764
1.30968
1.33102
1.49733
6.46609
20.916
42.2427
65.8829
85.9623
100.582
113.295
126.335
138.479
148.389
155.298
158.675
158.334
154.329
146.913
136.555
123.951
110.058
96.1329
83.7402
74.7104
71.0332
72.241
84.1268
110.768
135.602
134.323
128.44
125.02
127.194
1.34654
1.33299
1.39161
2.53731
11.8637
30.6169
54.6446
78.2285
96.9051
112.147
127.562
143.147
157.187
168.602
176.647
180.889
181.169
177.52
170.157
159.465
146.011
130.569
114.158
98.1267
84.1974
74.3301
70.4994
72.0878
85.5537
113.883
133.506
128.775
126.001
129.124
1.35832
1.35959
1.44638
4.74414
18.7392
41.0683
66.5997
89.46
107.846
125.153
143.389
161.157
176.892
189.649
198.758
203.86
204.783
201.548
194.361
183.563
169.636
153.192
135.03
116.245
98.3466
83.2903
73.2851
70.0104
72.7858
90.7312
121.843
130.483
127.535
130.44
1.37401
1.39795
1.63188
8.24937
26.5688
51.6304
77.7276
100.025
119.409
139.392
160.15
179.813
197.08
211.092
221.268
227.255
228.843
226.021
218.992
208.11
193.852
176.764
157.48
136.812
115.922
96.5003
80.8222
71.6651
69.4327
75.4446
101.613
130.001
128.639
131.478
1.39587
1.44163
2.43657
13.0215
34.8532
61.8385
88.0134
110.408
131.716
154.401
177.331
198.705
217.436
232.758
244.129
251.121
253.436
251.013
244.061
232.978
218.302
200.605
180.462
158.505
135.583
112.994
92.6707
77.2072
69.8368
69.1128
82.2486
117.364
130.322
132.795
1.41984
1.48097
3.89612
18.4776
43.1866
71.4397
97.6387
120.894
144.572
169.715
194.56
217.571
237.832
254.648
267.426
275.592
278.727
276.701
269.72
258.254
242.945
224.471
203.451
180.434
156.026
131.162
107.403
87.0969
73.1893
68.4948
71.1686
96.7244
133.371
134.033
1.44539
1.52099
5.98409
24.2546
51.274
80.3556
106.812
131.535
157.655
184.973
211.59
236.277
258.251
276.829
291.277
300.83
304.912
303.297
296.188
284.134
267.916
248.373
226.257
202.155
176.542
150.006
123.633
99.3793
80.1599
69.5984
67.5177
79.1754
124.351
135.404
1.46947
1.55889
8.61272
30.0836
58.9278
88.6107
115.669
142.223
170.654
199.915
228.268
254.763
278.706
299.352
315.76
326.939
332.12
330.954
323.628
310.785
293.372
272.425
248.883
223.458
196.633
168.788
140.561
113.376
89.8201
73.3682
67.4137
68.9033
97.6403
137.604
1.50396
1.83161
11.7206
35.7588
66.0473
96.2662
124.254
152.776
183.313
214.365
244.496
272.983
299.178
322.204
340.878
353.949
360.408
359.745
352.117
338.28
319.383
296.702
271.391
244.332
216.094
186.992
157.341
127.982
100.963
79.7409
68.3603
66.0901
80.5191
139.237
1.53385
2.31782
14.9663
41.1404
72.591
103.376
132.533
163.004
195.438
228.198
260.189
290.871
319.59
345.3
366.557
381.812
389.756
389.666
381.649
366.596
345.913
321.169
293.766
264.769
234.862
204.387
173.499
142.57
112.958
87.7365
71.1865
65.9743
69.4086
119.491
1.5609
2.97052
18.1667
46.1395
78.5509
109.971
140.431
172.741
206.887
241.313
275.256
308.311
339.792
368.471
392.635
410.39
420.053
420.62
412.122
395.613
372.826
345.685
315.886
284.688
252.882
220.859
188.723
156.553
125.062
96.6108
75.5779
66.3687
64.7692
65.9171
1.58729
3.7375
21.2131
50.703
83.9345
116.056
147.859
181.848
217.551
253.616
289.577
325.136
359.561
391.459
418.841
439.417
451.049
452.367
443.292
425.078
399.86
369.998
337.528
303.913
270.038
236.328
202.871
169.595
136.751
105.883
80.9124
67.4962
64.6459
64.6463
1.61324
4.56724
24.0356
54.8034
88.7539
121.619
154.727
190.219
227.34
265.004
303.003
341.126
378.604
413.904
444.769
468.467
482.313
484.477
474.722
454.551
426.597
393.733
358.37
322.184
286.142
250.672
215.84
181.493
147.593
115.043
86.9972
69.2877
64.5847
64.1868
1.63878
5.41233
26.5888
58.4308
93.0214
126.636
160.961
197.773
236.176
275.367
315.358
356.014
396.552
435.336
469.857
496.913
513.19
516.278
505.728
483.361
452.425
416.367
377.987
339.17
300.945
263.721
227.525
192.14
157.34
123.583
93.2573
71.7774
64.6747
63.9549
1.66387
6.23122
28.8446
61.5857
96.747
131.083
166.5
204.446
243.986
284.587
326.446
369.496
412.971
455.173
493.373
523.908
542.763
546.818
535.347
510.58
476.523
437.227
395.855
354.473
314.156
275.272
237.791
201.445
165.871
131.218
99.1856
74.6493
64.8605
63.8147
1.6885
6.98941
30.7876
64.2746
99.939
134.938
171.296
210.188
250.701
292.543
336.059
381.25
427.382
472.738
514.429
548.375
569.837
574.852
562.307
535.025
497.885
455.513
411.37
367.649
325.455
285.101
246.488
209.305
173.087
137.768
104.598
77.6623
65.1233
63.6994
1.71265
7.65994
32.4119
66.5079
102.605
138.183
175.317
214.962
256.258
299.116
343.994
390.948
439.285
487.301
532.014
569.031
592.949
598.839
585.037
555.307
515.385
470.361
423.892
378.241
334.518
292.982
253.465
215.623
178.913
143.102
109.189
80.5766
65.4412
63.6032
1.73631
8.22344
33.7193
68.2992
104.753
140.806
178.541
218.738
260.602
304.201
350.066
398.288
448.207
498.136
545.056
584.429
610.373
616.648
601.726
569.948
527.895
480.936
432.818
385.819
341.04
298.702
258.576
220.3
183.284
147.159
112.784
83.1343
65.7783
63.5191
1.75949
8.66827
34.7176
69.6644
106.393
142.804
180.955
221.498
263.691
307.709
354.119
403.017
453.744
504.618
552.655
593.345
619.105
624.498
610.527
577.606
534.447
486.545
437.651
390.031
344.775
302.084
261.7
223.253
186.139
149.896
115.279
85.108
66.0911
63.4427
1.78222
8.98992
35.4205
70.6219
107.539
144.177
182.557
223.231
265.494
309.576
356.04
404.951
455.619
506.335
554.1
594.474
619.175
624.599
610.154
577.403
534.43
486.751
438.076
390.647
345.553
303.003
262.742
224.415
187.421
151.265
116.628
86.3296
66.3316
63.371
1.80454
9.19107
35.8451
71.1923
108.204
144.935
183.352
223.937
265.996
309.766
355.772
404.01
453.722
503.137
549.224
587.669
611.37
616.193
600.717
569.222
527.734
481.456
434.003
387.588
343.308
301.4
261.652
223.743
187.094
151.22
116.804
86.6989
66.452
63.3014
1.8265
9.2756
36.0143
71.4005
108.411
145.091
183.353
223.62
265.194
308.276
353.31
400.204
448.104
495.167
538.356
573.553
594.912
598.336
583.444
553.878
514.829
470.945
425.6
380.947
338.084
297.288
258.422
221.224
185.142
149.74
115.782
86.1693
66.399
63.2312
1.84794
9.27207
35.9444
71.2643
108.172
144.67
182.581
222.296
263.107
305.133
348.71
393.643
438.98
482.829
522.235
553.38
571.634
573.74
559.712
532.583
496.625
455.828
413.263
370.971
330.025
290.745
253.087
216.863
181.554
146.818
113.565
84.8166
66.0528
63.1586
1.86895
9.19959
35.6602
70.809
107.51
143.694
181.061
219.988
259.767
300.394
342.077
384.52
426.694
466.714
501.824
528.641
543.616
544.467
531.415
506.872
474.255
436.909
397.546
358.029
319.364
281.908
245.722
210.691
176.33
142.437
110.146
82.6599
65.4581
63.082
1.88966
9.0746
35.1927
70.0634
106.449
142.188
178.82
216.73
255.218
294.139
333.558
373.093
411.677
447.513
478.141
500.721
512.618
512.344
500.226
478.164
448.86
415.065
379.089
342.561
306.387
270.96
236.438
202.761
169.48
136.602
105.55
79.7615
64.6849
62.9967
1.91023
8.91397
34.5769
69.0594
105.018
140.178
175.891
212.561
249.514
286.463
323.328
359.659
394.406
425.934
452.148
470.779
479.939
478.693
467.424
447.642
421.474
391.137
358.535
325.028
291.41
258.112
225.37
193.142
161.029
129.335
99.8399
76.24
63.8332
62.8984
1.93086
8.73513
33.8507
67.8314
103.244
137.691
172.308
207.522
242.714
277.471
311.573
344.527
375.356
402.645
424.684
439.751
446.532
444.475
433.981
416.255
392.967
365.866
336.463
305.857
274.744
243.591
212.67
181.915
151.023
120.702
93.1463
72.313
63.0079
62.8031
1.95175
8.5558
33.0544
66.4144
101.15
134.747
168.101
201.656
234.877
267.263
298.472
327.993
354.965
378.225
396.443
408.365
413.119
410.406
400.621
384.729
364.019
339.837
313.344
285.416
256.68
227.623
198.49
169.167
139.544
110.846
85.7202
68.368
62.4301
62.7819
1.97318
8.39385
32.2302
64.8451
98.762
131.36
163.288
194.996
226.055
255.926
284.182
310.316
333.607
353.147
367.954
377.16
380.212
376.988
367.852
353.563
335.097
313.458
289.523
264.004
237.483
210.423
182.966
154.991
126.746
100.046
78.0112
65.1489
62.2746
62.8433
1.99556
8.26796
31.4222
63.1625
96.1027
127.545
157.888
187.573
216.296
243.537
268.835
291.705
311.569
327.757
339.585
346.486
348.136
344.521
335.96
323.032
306.455
286.964
265.232
241.865
217.392
192.177
166.219
139.522
112.91
88.8049
70.7704
62.8943
62.1465
63.0532
2.01923
8.1991
30.6777
61.407
93.1935
123.306
151.909
179.412
205.643
230.163
252.527
272.299
289.033
302.259
311.53
316.503
317.008
313.089
305.008
293.193
278.164
260.464
240.641
219.214
196.609
173.022
148.37
123.02
98.5324
77.9185
65.1868
61.9448
62.5222
63.5648
2.04426
8.21406
30.0458
59.6177
90.0481
118.636
145.34
170.519
194.13
215.859
235.33
252.18
266.08
276.715
283.813
287.184
286.752
282.582
274.878
263.953
250.193
234.026
215.905
196.232
175.266
153.041
129.605
105.973
84.4782
68.6126
61.8888
61.8726
63.6963
64.2057
2.07125
8.34539
29.5833
57.8299
86.668
113.507
138.143
160.878
181.776
200.669
217.295
231.386
242.715
251.082
256.33
258.364
257.155
252.77
245.369
235.19
222.534
207.75
191.169
173.022
153.403
132.328
110.347
89.2653
72.0969
62.5102
61.0162
64.5203
67.0263
65.2836
2.10082
8.66732
29.3208
56.0698
83.0387
107.867
130.252
150.438
168.572
184.626
198.472
209.952
218.93
225.292
228.951
229.858
228.011
223.472
216.369
206.891
195.272
181.753
166.492
149.57
131.039
111.213
91.5066
74.3808
63.2165
60.2219
63.8221
69.5764
70.4816
66.2042
2.15465
9.26737
29.3105
54.3495
79.1223
101.633
121.562
139.108
154.47
167.738
178.908
187.936
194.768
199.352
201.644
201.618
199.283
194.691
187.94
179.162
168.495
156.026
141.771
125.839
108.448
90.6539
74.7631
63.4388
59.7071
62.6607
69.4428
74.3035
72.1297
66.7026
2.30363
10.2638
29.6153
52.6592
74.8477
94.6872
111.927
126.743
139.365
149.959
158.62
165.404
170.323
173.368
174.519
173.761
171.099
166.559
160.184
152.02
142.074
130.356
116.927
102.171
86.6737
72.6856
62.652
58.9822
61.5141
68.1327
74.6713
76.1155
71.5949
67.0005
2.68163
11.83
30.3098
50.9554
70.1024
86.8745
101.165
113.152
123.079
131.158
137.55
142.366
145.656
147.432
147.68
146.382
143.513
139.047
132.94
125.161
115.691
104.734
92.5467
79.9896
68.2281
60.6548
58.0659
60.574
67.2725
73.619
76.4931
74.1279
70.2968
67.2955
3.5497
14.225
31.4689
49.1283
64.7058
77.9957
89.0717
98.132
105.428
111.188
115.584
118.728
120.68
121.45
121.008
119.299
116.245
111.756
105.773
98.3476
89.7062
80.4477
70.8437
62.4866
57.7111
57.1057
60.2701
67.414
73.0958
74.2828
73.21
71.8491
69.3182
67.6525
5.71337
17.9706
33.1765
46.9896
58.4566
67.9306
75.6191
81.7271
86.4882
90.1076
92.7305
94.444
95.3055
95.2594
94.2334
92.1508
88.9285
84.5495
79.1885
73.1243
66.8979
61.0586
56.5101
54.9979
56.2109
62.2229
69.6763
73.7223
72.7638
71.957
71.3044
70.2992
69.0386
68.4829
10.0471
23.6667
35.517
44.236
51.1523
56.6744
60.9399
64.1553
66.522
68.1935
69.2865
69.8106
69.7097
69.0003
67.6738
65.729
63.2556
60.455
57.5879
54.9507
52.9579
51.5826
53.2429
58.5373
66.6963
77.8319
74.969
73.4572
72.6945
71.9213
71.2479
70.6805
70.2803
70.9651
27.8411
32.8973
38.4439
41.3138
43.4943
45.4676
46.9222
47.8558
48.434
48.7738
48.9286
48.9827
49.0351
49.0877
49.1415
49.1975
49.2575
49.3252
49.4064
49.5135
49.6707
50.071
69.1975
83.9809
82.656
81.1464
80.4925
79.6393
78.9703
77.4199
76.6063
76.3808
77.8467
81.1138
33.6462
45.3757
70.1284
98.3945
124.747
143.988
33.5619
48.9088
76.0582
104.886
130.434
147.368
33.4835
51.6578
79.6688
107.761
131.193
145.775
33.4078
53.3593
80.9554
107.169
126.932
136.683
33.3326
53.8961
79.9893
103.31
119.241
124.291
33.2548
53.2892
76.9918
96.6742
108.095
108.496
33.0801
51.6773
72.3414
87.7967
94.489
90.5202
32.6652
49.3258
66.3931
77.3171
79.3703
71.7475
32.0147
46.3363
59.5218
65.9764
63.9065
53.6275
31.134
42.8578
52.0645
54.352
48.9998
37.3317
30.0085
39.0096
44.3885
43.1003
35.4961
23.8795
28.681
34.9289
36.8327
32.8138
24.1586
13.8809
27.3452
30.803
29.7418
23.8763
15.2871
7.20935
26.0432
26.8142
23.4067
16.6445
9.09851
3.6153
24.7096
23.0913
17.9776
11.1177
5.10226
2.05196
23.3826
19.7017
13.5408
7.23454
2.97734
1.61876
22.0801
16.6849
10.0426
4.64575
2.02196
1.48656
20.754
14.0991
7.44587
3.13999
1.70487
1.4281
19.5132
11.9139
5.51772
2.328
1.58102
1.40066
18.3976
10.1157
4.1959
1.97218
1.51908
1.3906
17.4186
8.63301
3.32294
1.80338
1.48615
1.38955
16.5726
7.43259
2.79107
1.71077
1.47029
1.39418
15.8507
6.49118
2.47839
1.65615
1.46477
1.40195
15.2417
5.76546
2.28512
1.62378
1.46578
1.41288
14.7266
5.20619
2.15914
1.60568
1.47137
1.4263
14.2831
4.7768
2.07437
1.59714
1.48032
1.44202
13.9075
4.45789
2.01662
1.59531
1.4919
1.45915
13.5958
4.22126
1.97765
1.59824
1.50534
1.47787
13.3429
4.04508
1.95221
1.6047
1.52057
1.49834
13.1427
3.91407
1.93677
1.61392
1.53727
1.51927
12.9893
3.81763
1.929
1.6253
1.55402
1.5403
12.8774
3.74838
1.92722
1.63835
1.57075
1.56134
12.8021
3.70089
1.93019
1.65265
1.58761
1.58233
12.7591
3.67115
1.93694
1.66795
1.60504
1.60324
12.745
3.65616
1.94677
1.6841
1.62316
1.62403
12.7558
3.65313
1.95915
1.70094
1.6416
1.64469
12.7849
3.66214
1.97367
1.71837
1.66024
1.66522
12.8142
3.69317
1.99004
1.73628
1.67904
1.68561
12.8437
3.74586
2.00803
1.75461
1.69796
1.70586
12.8735
3.81664
2.02707
1.77329
1.71699
1.72624
12.9035
3.90181
2.0467
1.79225
1.73611
1.74662
12.9339
3.99719
2.06682
1.81134
1.7553
1.76689
12.9646
4.09809
2.08727
1.83053
1.77453
1.78703
12.9957
4.19925
2.10783
1.84976
1.7938
1.80706
13.0272
4.29464
2.12827
1.86899
1.81309
1.82705
13.0589
4.37713
2.14829
1.88817
1.83242
1.84706
13.0907
4.43962
2.1677
1.90719
1.85175
1.8672
13.1228
4.47094
2.18562
1.92586
1.87107
1.88756
13.1244
4.47803
2.20118
1.94401
1.89037
1.9082
13.0815
4.46173
2.21373
1.96149
1.90965
1.9292
12.9861
4.41886
2.22267
1.97815
1.92895
1.95061
12.8302
4.34603
2.22754
1.99389
1.94825
1.97215
12.6087
4.2417
2.22804
2.00863
1.96757
1.99427
12.3211
4.107
2.22417
2.02236
1.98693
2.01806
11.9705
3.94562
2.21637
2.03523
2.00657
2.04625
11.5641
3.76485
2.20564
2.04741
2.02649
2.07979
11.1173
3.57513
2.19333
2.05959
2.0484
2.1223
10.6523
3.38803
2.18149
2.07015
2.06804
2.165
10.1957
3.2162
2.17249
2.08131
2.11208
2.75
9.77545
3.06671
2.16419
2.10635
3.35764
12.315
9.46558
2.96227
2.16605
2.15812
5.71928
15.6511
9.21434
2.8889
2.17409
2.45354
7.6784
15.6726
9.0136
2.83496
2.17935
2.84058
8.93371
15.189
105.63
105.375
106.503
108.199
110.867
114.183
117.718
121.273
123.777
124.902
125.176
125.403
125.635
125.892
126.204
126.627
127.236
128.893
183.507
396.943
395.12
387.956
385.165
384.308
382.672
380.806
378.788
376.026
375.546
381.831
397.779
432.549
504.343
610.063
101.148
93.5553
96.9234
101.764
109.974
121.003
133.373
145.329
155.126
161.736
164.502
163.052
158.254
151.384
143.849
137.273
132.985
130.77
136.11
202.518
330.317
359.828
331.621
328.011
324.441
321.165
317.943
314.765
311.883
310.044
311.088
319.997
350.107
405.691
96.8927
84.1591
88.6072
97.2737
111.408
131.973
156.546
181.839
204.321
221.275
231.15
232.871
226.65
213.78
196.493
177.144
159.228
144.629
137.457
137.585
190.608
290.107
330.65
325.953
323.756
321.289
318.295
314.081
308.259
302.173
297.32
295.637
301.548
321.015
91.6657
74.6503
81.9425
94.1958
114.112
144.884
183.5
224.76
262.842
293.007
312.342
319.47
314.35
298.225
273.34
242.678
210.323
180.623
155.841
142.281
141.007
189.726
284.874
334.609
341.993
348.5
348.918
344.262
333.96
318.989
302.697
291.28
288.545
296.764
86.246
66.6785
75.8246
91.6028
117.369
159.079
213.319
272.394
327.643
372.223
402.022
415.353
412.272
394.208
363.574
323.56
278.349
233.48
193.088
161.921
145.227
147.55
203.439
298.444
356.711
377.941
389.831
388.913
375.746
351.255
321.131
295.17
283.708
284.43
81.2
64.2088
70.46
89.0492
120.646
173.782
244.667
322.277
394.786
453.564
493.681
513.185
512.28
492.814
457.608
410.123
354.488
296.375
241.442
194.931
161.285
147.857
160.966
231.49
328.917
393.597
425.222
436.8
425.287
393.012
348.312
305.558
281.854
276.905
77.1495
63.7868
66.8494
86.3813
123.514
188.042
275.602
370.952
459.208
530.778
580.329
605.6
606.702
585.979
546.934
493.566
430.08
361.753
294.562
234.965
187.38
156.644
150.576
181.075
272.068
372.775
442.281
476.837
472.927
437.539
380.781
320.713
282.653
272.026
74.139
63.4068
64.6208
83.6651
125.674
200.822
303.753
414.366
515.38
597.398
654.895
684.942
687.742
665.971
623.842
566.102
497.265
422.127
346.275
276.618
218.216
174.392
153.626
157.402
210.74
315.702
419.252
485.401
504.273
474.951
412.659
337.73
285.816
269.063
72.0081
63.0801
63.3342
81.0293
126.934
211.094
326.658
448.577
558.22
647.402
710.192
741.689
745.744
724.002
680.477
620.567
549.235
470.968
390.667
314.858
249.232
196.611
162.904
155.063
173.634
248.025
356.635
452.544
498.791
492.328
435.702
352.835
289.883
266.408
70.6207
62.9313
62.7124
78.6193
127.156
217.918
342.095
470.353
583.731
675.63
739.366
765.129
768.366
752.159
710.236
650.981
580.485
503.056
422.831
345.425
276.603
219.228
176.81
157.567
160.016
194.973
279.409
379.283
454.632
480.889
439.437
361.28
293.067
263.957
69.8037
62.8453
62.525
76.565
126.205
220.479
348.306
477.475
589.309
678.545
738.691
763.871
766.367
749.864
709.351
653.528
587.448
514.851
439.156
364.97
297.415
239.329
193.147
164.549
158.687
167.785
212.798
291.304
371.353
419.512
411.566
356.646
292.97
261.458
69.2287
62.8472
62.3539
74.7963
123.897
218.082
344.09
468.759
573.84
655.182
708.961
734.713
735.039
714.454
677.273
627.411
568.907
504.804
437.859
371.458
309.653
254.949
209.255
175.443
160.781
160.772
174.216
218.318
281.575
337.078
357.574
333.68
287.222
258.42
68.5957
62.9934
62.1963
73.1714
119.996
210.008
328.803
444.155
537.842
607.395
651.394
670.657
668.598
649.2
616.739
574.69
526.186
473.571
418.873
364.28
312.321
264.836
223.428
189.557
167.791
161.023
161.783
175.433
211.652
258.488
293.116
297.57
274.181
253.959
67.7937
63.3254
62.0449
71.571
114.319
195.923
302.211
403.918
482.952
537.909
570.347
582.247
577.212
559.449
532.534
499.522
462.751
423.831
383.914
343.98
305.076
268.181
234.397
204.469
180.739
166.266
161.567
161.982
172.619
200.025
234.321
255.64
254.766
248.205
66.7102
64.1812
61.8904
69.7898
106.594
175.975
264.755
348.915
411.659
451.078
470.831
474.964
467.336
451.481
430.69
407.349
383.094
358.762
334.641
310.705
286.888
263.267
240.08
217.488
196.48
179.064
167.102
162.547
162.377
170.088
191.94
217.998
233.078
240.747
65.3472
65.2186
61.7102
67.7871
97.0799
151.372
218.394
280.941
326.262
351.959
361.153
358.39
348.337
334.344
319.128
304.457
291.396
280.258
270.831
262.528
254.549
246.026
236.12
224.162
209.863
194.455
179.755
168.587
163.672
162.824
170.297
191.177
213.786
232.737
63.7577
65.3328
61.4884
65.6643
86.5136
124.507
167.893
205.393
229.592
239.249
237.624
229.009
216.718
203.859
192.523
184.008
179.027
177.824
180.415
186.268
194.485
203.609
211.552
215.791
215.218
206.739
193.914
180.099
169.449
164.238
163.337
174.152
198.144
225.346
62.1003
65.3007
61.36
63.5795
75.7899
98.3941
121.01
136.285
142.445
140.364
132.853
122.829
112.917
104.739
99.0909
96.2317
96.1796
98.8666
104.558
113.793
126.779
143.383
162.999
182.791
198.904
205.672
201.777
190.782
178.013
168.47
163.998
166.835
186.275
218.381
60.3228
65.1657
61.166
61.7731
66.4559
76.2417
85.3382
88.3219
86.094
80.9932
75.4452
70.9359
67.8549
66.0278
65.084