/*--------------------------------*- C++ -*----------------------------------*\
| =========                 |                                                 |
| \\      /  F ield         | OpenFOAM: The Open Source CFD Toolbox           |
|  \\    /   O peration     | Version:  v2012                                 |
|   \\  /    A nd           | Website:  www.openfoam.com                      |
|    \\/     M anipulation  |                                                 |
\*---------------------------------------------------------------------------*/
FoamFile
{
    version     2.0;
    format      ascii;
    class       volScalarField;
    location    "567";
    object      k;
}
// * * * * * * * * * * * * * * * * * * * * * * * * * * * * * * * * * * * * * //

dimensions      [0 2 -2 0 0 0 0];


internalField   nonuniform List<scalar> 
6018
(
0.0115643
0.0134084
0.0151981
0.0169411
0.0186616
0.0204083
0.0222406
0.0242242
0.0264337
0.0289599
0.0319184
0.0354613
0.0397961
0.0452141
0.0521382
0.0611984
0.0733587
0.0901474
0.114117
0.14984
0.0166611
0.0184898
0.0205013
0.0227135
0.0251487
0.0278488
0.0308779
0.0343148
0.0382527
0.0428039
0.0481051
0.0543247
0.0616714
0.0704061
0.0808435
0.0933634
0.108405
0.12643
0.147836
0.172613
0.0303891
0.0332194
0.0361695
0.0392742
0.0425759
0.046128
0.0499916
0.0542352
0.0589355
0.0641791
0.0700648
0.0767076
0.0842404
0.0928071
0.102582
0.113761
0.126554
0.141179
0.157865
0.176877
0.0408006
0.0437619
0.0468286
0.0500428
0.0534484
0.0570918
0.0610227
0.0652944
0.0699656
0.0751014
0.080776
0.087074
0.0940931
0.10195
0.110785
0.120769
0.132112
0.145091
0.16008
0.177618
0.0463666
0.0491654
0.0520946
0.0551922
0.058495
0.0620402
0.0658673
0.070019
0.0745432
0.0794945
0.0849365
0.0909443
0.0976088
0.105043
0.11339
0.122833
0.133614
0.146054
0.160591
0.177821
0.0476814
0.0502259
0.0529433
0.0558667
0.059027
0.0624559
0.0661879
0.0702624
0.0747244
0.0796238
0.0850263
0.0910051
0.0976488
0.105068
0.113405
0.122842
0.133619
0.146056
0.160591
0.177821
0.0447706
0.046967
0.0493934
0.0520768
0.0550444
0.0583256
0.061955
0.0659744
0.0704562
0.0754543
0.0810259
0.0872468
0.0942094
0.102026
0.110833
0.120796
0.132127
0.145097
0.160082
0.177618
0.0367438
0.0383745
0.0402951
0.0425294
0.0450985
0.0480289
0.0514004
0.055288
0.0597169
0.064755
0.0704856
0.07701
0.0844502
0.092947
0.102673
0.113817
0.126585
0.141194
0.15787
0.176878
0.0224607
0.0231512
0.0241753
0.0255425
0.027285
0.0294817
0.0321442
0.0352934
0.0390043
0.0433761
0.0485368
0.0546475
0.06191
0.0705786
0.0809631
0.0934417
0.108451
0.126454
0.147846
0.172615
0.0200267
0.0198118
0.0199174
0.0203839
0.0211611
0.0222191
0.0235464
0.0251615
0.0271039
0.0294375
0.0322571
0.0356994
0.0399606
0.045325
0.05221
0.061242
0.0733827
0.0901587
0.11412
0.149841
0.000103978
0.000127707
0.000127478
0.000103024
6.51806e-05
3.27518e-05
1.41751e-05
6.42187e-06
4.62029e-06
8.54749e-06
2.62981e-05
6.01347e-05
9.74671e-05
0.000122971
0.000129472
0.000128184
0.000125583
0.00012903
0.000141864
0.000153067
0.000158912
0.000166485
0.000177641
0.000179724
0.000175575
0.000207125
0.00041289
0.000815237
0.00152871
0.00261875
0.00408243
0.00582959
0.00772162
0.00965407
0.0004516
0.000385729
0.000274186
0.00018933
0.000125422
7.99746e-05
5.02068e-05
3.29633e-05
2.75453e-05
5.42338e-05
0.000180697
0.000388509
0.000573618
0.000649731
0.000642232
0.00066352
0.000727508
0.00085858
0.00103778
0.00121255
0.00136247
0.00168841
0.00226908
0.00295993
0.00376921
0.00470041
0.00574808
0.00688766
0.00810829
0.00940767
0.0107672
0.0121612
0.013552
0.0150045
0.0011602
0.00109623
0.000937232
0.000735895
0.000538405
0.000375679
0.00025727
0.000181628
0.000155133
0.000257307
0.000744333
0.00151346
0.0022581
0.00279105
0.003285
0.00374272
0.00429706
0.00513321
0.00623388
0.00719437
0.00801389
0.00872625
0.00942022
0.0101601
0.011025
0.0120426
0.0132371
0.0146227
0.016217
0.0180234
0.0201067
0.0224543
0.0249808
0.0276332
0.00173687
0.00165886
0.00148129
0.0012613
0.00101103
0.000770314
0.000571578
0.000437873
0.000429296
0.000801412
0.00207977
0.00386092
0.00557294
0.00733652
0.0087625
0.0102442
0.0117871
0.0131642
0.0139932
0.0142653
0.0142912
0.0143899
0.014745
0.0154332
0.0164798
0.0178827
0.0196288
0.021689
0.0240427
0.0266209
0.0293374
0.0321449
0.0349967
0.0378783
0.00238339
0.00226985
0.00203982
0.00175946
0.00145742
0.00116339
0.00091634
0.000792191
0.00109525
0.00258219
0.00532747
0.00858128
0.0116039
0.0140846
0.0160411
0.0177106
0.0187806
0.0189972
0.0184803
0.0178047
0.0174116
0.0175119
0.0181599
0.0193288
0.0209537
0.0229533
0.0252389
0.0277218
0.0303224
0.032974
0.0356358
0.0382937
0.0409513
0.0436317
0.00325797
0.0030422
0.00270644
0.00231601
0.00192391
0.00157266
0.00133713
0.00152059
0.0031081
0.00688739
0.0116116
0.0159611
0.0189262
0.020983
0.022305
0.0227359
0.0222232
0.0210095
0.0198071
0.019098
0.0190696
0.0197187
0.0209519
0.02264
0.0246482
0.0268543
0.0291591
0.0314917
0.0338101
0.0360984
0.0383631
0.0406239
0.0429081
0.0452491
0.00437933
0.00400294
0.00349566
0.00293548
0.00242587
0.00206422
0.00212075
0.00352827
0.00760527
0.0137172
0.0194364
0.0231053
0.0251335
0.0258902
0.0255282
0.0242183
0.022432
0.0208542
0.019926
0.0197902
0.0203819
0.0215448
0.0231017
0.0248899
0.0267787
0.0286756
0.0305263
0.0323099
0.0340315
0.035714
0.0373913
0.0390988
0.0408658
0.0427402
0.00566324
0.00503904
0.00430067
0.00356349
0.00301138
0.00293899
0.00414208
0.00800186
0.0149093
0.0215922
0.0262923
0.0284995
0.0287333
0.0275871
0.0254757
0.0231941
0.0213071
0.02018
0.0198921
0.0203249
0.0212755
0.0225352
0.0239278
0.0253229
0.0266369
0.0278276
0.0288883
0.0298346
0.030699
0.0315237
0.0323537
0.0332391
0.0342331
0.0353753
0.006976
0.00607747
0.0051113
0.00431137
0.00405446
0.00512044
0.00872512
0.015036
0.0224825
0.0282274
0.030982
0.0309886
0.0291201
0.0263837
0.02361
0.0214109
0.0200545
0.0195508
0.0197332
0.0203657
0.0212197
0.0221102
0.0229057
0.0235261
0.0239323
0.0241176
0.024094
0.0238911
0.0235491
0.0231166
0.0226624
0.0222719
0.0220404
0.0220741
0.00825753
0.00713467
0.00611125
0.00564743
0.00650651
0.00948233
0.015055
0.0222454
0.0287791
0.0324118
0.0326108
0.0303825
0.027115
0.0238919
0.0213461
0.0197189
0.0189528
0.0188396
0.0191209
0.0195577
0.0199633
0.0202103
0.0202271
0.0199857
0.0194945
0.0187886
0.0179224
0.016949
0.015923
0.0149025
0.0139597
0.0133051
0.0134139
0.0150857
6.3237e-07
3.49302e-06
8.46246e-06
1.50607e-05
3.25954e-05
6.74081e-05
2.99005e-06
1.14768e-05
6.64084e-05
0.000208592
0.00035347
0.000441811
6.83961e-06
3.90121e-05
0.000253986
0.000590608
0.000896035
0.00109216
9.8781e-06
9.69658e-05
0.000479719
0.000974304
0.00138806
0.00164594
1.2361e-05
0.0002023
0.000790819
0.00145984
0.0019888
0.00230252
2.53901e-05
0.000394568
0.00124898
0.002149
0.00283436
0.00321038
0.000114503
0.000711462
0.00191865
0.00313707
0.00401064
0.00441547
0.000370601
0.00118894
0.00288026
0.00451244
0.00556193
0.00590822
0.000856177
0.00186548
0.00422048
0.00630675
0.00741531
0.00754409
0.00149476
0.00277353
0.00598305
0.0084401
0.0094155
0.00918946
0.00959257
0.0084187
0.00779784
0.00835035
0.0107546
0.0154136
0.0218784
0.0284014
0.0326964
0.0334719
0.0312724
0.0276619
0.0240348
0.0211589
0.0192605
0.0182431
0.0178644
0.0178588
0.0179985
0.0181216
0.0181375
0.0180187
0.0177821
0.017456
0.0169915
0.0163756
0.0155436
0.0144221
0.0129586
0.0111419
0.00903263
0.00678948
0.00464703
0.00336416
0.0112171
0.0104114
0.0105973
0.0123603
0.016088
0.0215573
0.0275692
0.0321157
0.0335577
0.0317958
0.0281634
0.0242564
0.0210646
0.0188965
0.0176553
0.0170924
0.0169512
0.0170331
0.0172207
0.0174714
0.0177893
0.0181826
0.018616
0.0189756
0.0190823
0.0187455
0.0177786
0.0160966
0.0137447
0.0108239
0.00732155
0.00400984
0.00165292
0.000621132
0.013456
0.0132022
0.0142989
0.0170971
0.0215163
0.0267282
0.0311388
0.0330783
0.0319411
0.0285939
0.0245958
0.0211484
0.0187287
0.0173052
0.0166486
0.0165242
0.0167683
0.0173023
0.0181131
0.019197
0.0204985
0.0218566
0.0229897
0.0235403
0.0231858
0.0217226
0.0191847
0.0158479
0.0122281
0.00893914
0.00619245
0.00392012
0.00185503
0.000437369
0.0161656
0.016597
0.0184873
0.0218658
0.0261596
0.0301409
0.0323094
0.0317739
0.0289079
0.025026
0.0214302
0.0187978
0.0172266
0.0165441
0.016544
0.0170922
0.0181348
0.0196514
0.0215841
0.0237529
0.0258137
0.0272846
0.0276671
0.026621
0.0241111
0.0204505
0.0163232
0.0126913
0.00969951
0.00757664
0.00585676
0.0042642
0.00221068
0.000393034
0.0192488
0.0202808
0.0226543
0.0260029
0.0293771
0.0315119
0.031427
0.0290998
0.0254983
0.021882
0.0190951
0.0174026
0.0167269
0.0169057
0.0178243
0.0194313
0.0216723
0.0243904
0.0272441
0.0296929
0.0311048
0.0309541
0.0290351
0.0255656
0.0211007
0.0166789
0.0131222
0.0105254
0.00853814
0.00702635
0.00579091
0.00451938
0.00247178
0.000369001
0.0224367
0.0238521
0.0262799
0.0289932
0.030893
0.0310583
0.0292147
0.0259807
0.0224604
0.0195859
0.0177944
0.0171294
0.0174894
0.0187811
0.0209367
0.0238446
0.0272264
0.0305702
0.0331744
0.0343303
0.0335749
0.0308672
0.0265829
0.0214154
0.0169626
0.0135858
0.0109928
0.00904425
0.00761152
0.00653349
0.00564307
0.00459309
0.00259458
0.000329592
0.0253869
0.0268674
0.0289041
0.0305734
0.0308157
0.0293349
0.0264709
0.0231226
0.0202237
0.0183494
0.0176788
0.0181869
0.0198035
0.0224383
0.0259063
0.0298085
0.0334774
0.0360945
0.0369317
0.0356039
0.0321729
0.0270921
0.0213917
0.0170215
0.0135818
0.0109745
0.00904619
0.00763954
0.00663101
0.00590166
0.00529164
0.00444085
0.00255251
0.000285579
0.0278686
0.0290879
0.0303529
0.0307644
0.0295456
0.026998
0.0238426
0.0209646
0.0190207
0.0183065
0.0188998
0.0207538
0.023756
0.0276447
0.0319054
0.0357502
0.0382821
0.0387843
0.0369364
0.0328102
0.0266504
0.0209922
0.016461
0.0129939
0.0103935
0.00849131
0.00715312
0.00620515
0.00555317
0.00511434
0.00473573
0.00405033
0.00229884
0.000277309
0.0297142
0.0303815
0.0306756
0.0298879
0.0276114
0.0246333
0.0217824
0.0197625
0.0189666
0.0195495
0.0215245
0.0247485
0.028893
0.0333397
0.0372088
0.0395624
0.0397078
0.0373783
0.032638
0.0254359
0.0196388
0.0151335
0.0117472
0.00925455
0.00750715
0.0062708
0.00540724
0.00481719
0.00444178
0.00422402
0.00400247
0.003458
0.00193602
0.000270021
0.0308341
0.0307732
0.030091
0.0283359
0.0255328
0.0226876
0.0205501
0.019605
0.0200904
0.0220457
0.0253303
0.0295568
0.0340212
0.0377718
0.0398531
0.0396093
0.0368313
0.0315605
0.0237109
0.0176399
0.0131224
0.00992467
0.00766859
0.00611953
0.00507922
0.00435784
0.0038574
0.0035302
0.00336085
0.00329647
0.00321431
0.00283133
0.00153881
0.000251689
0.0312535
0.0304291
0.0289252
0.0265443
0.0236995
0.0213901
0.0202121
0.0204965
0.0222989
0.0254799
0.0296253
0.0339677
0.0374932
0.0392356
0.0385814
0.0354035
0.0298663
0.0220578
0.0154303
0.0109519
0.00783638
0.00590022
0.00459912
0.00373709
0.00316803
0.00278265
0.00253071
0.00240065
0.00239143
0.00245332
0.00251368
0.00224716
0.00115149
0.000216656
0.0310873
0.0295792
0.0274924
0.0248382
0.0223355
0.0208441
0.0207918
0.0223049
0.0252433
0.0291675
0.0332875
0.0365418
0.0379382
0.0368949
0.0333659
0.0277052
0.0202809
0.013705
0.00897233
0.00612261
0.00436499
0.00327774
0.002584
0.00212685
0.00181988
0.00162047
0.00151987
0.00152623
0.00163393
0.0018146
0.00194894
0.00173211
0.000791354
0.000179965
0.0304933
0.0284552
0.0260558
0.0234565
0.0215842
0.0210775
0.0221327
0.024701
0.0283052
0.0321423
0.0351362
0.036256
0.0349157
0.0311298
0.0253866
0.0183854
0.0121603
0.00768596
0.00490439
0.00338444
0.00253763
0.00201599
0.00164096
0.00135372
0.00112465
0.000966029
0.000903599
0.000960843
0.00112413
0.00135949
0.00149439
0.00124605
0.000492969
0.000146687
0.0296278
0.0272333
0.0247256
0.0224895
0.0214117
0.0219068
0.0239571
0.0271596
0.0306962
0.0334805
0.0344492
0.0329748
0.0290927
0.0234052
0.0168689
0.0107412
0.00657183
0.00414032
0.00290819
0.00229108
0.00192922
0.00166511
0.00142483
0.00117718
0.000928965
0.000725973
0.000623909
0.000657881
0.000813679
0.00100852
0.00107602
0.000825113
0.000294766
0.000105467
0.0286277
0.026053
0.0236369
0.0219758
0.021767
0.0231497
0.025848
0.0290683
0.0317185
0.0326852
0.0312723
0.0274754
0.021932
0.0156532
0.00983257
0.0057481
0.00359249
0.00262412
0.00218
0.00193611
0.00177011
0.00162662
0.0014645
0.00125245
0.000989139
0.000725242
0.000543151
0.000499547
0.000584505
0.000705648
0.000717085
0.000510333
0.000169559
6.4457e-05
0.0275998
0.0250063
0.0228443
0.0218439
0.0224369
0.0245032
0.0273544
0.0299184
0.0310318
0.0298805
0.0263676
0.0211046
0.0151112
0.00950056
0.00533819
0.00322246
0.00239556
0.0020561
0.00188094
0.00177423
0.00170239
0.00164019
0.00155524
0.00140866
0.00117335
0.000871383
0.000590228
0.00042662
0.000406457
0.000461492
0.000448009
0.000300992
9.36547e-05
3.31044e-05
0.0266054
0.0240845
0.0223227
0.0220095
0.0232665
0.025645
0.0281091
0.0294655
0.0287574
0.0257161
0.0208664
0.0152039
0.00979505
0.00557514
0.00314206
0.0022202
0.00192078
0.00178112
0.00169884
0.00165102
0.00162878
0.00162017
0.00160258
0.0015397
0.00138636
0.00111754
0.000775381
0.000474957
0.000316789
0.000294671
0.000269241
0.000172345
4.96405e-05
1.4482e-05
0.0256793
0.0233055
0.0220266
0.0223278
0.0240423
0.0263159
0.0279285
0.027789
0.0253887
0.0210682
0.015755
0.0105402
0.00623742
0.00346489
0.00221206
0.00181992
0.00169914
0.00163113
0.00158563
0.00155927
0.00155316
0.00156492
0.00158363
0.00158579
0.0015305
0.00136609
0.00106694
0.000687328
0.000365949
0.000215696
0.000164935
9.82992e-05
2.57224e-05
5.83224e-06
0.0248425
0.0226884
0.0219239
0.0227079
0.0245847
0.0263723
0.026845
0.0252332
0.0215882
0.0167243
0.0116332
0.00723749
0.00410894
0.00244861
0.0018399
0.00167101
0.00161746
0.00158275
0.00155121
0.00152538
0.00151161
0.00151467
0.0015333
0.00155692
0.00156248
0.00150488
0.00132744
0.00100178
0.000589574
0.000253712
0.000125351
6.12131e-05
1.41177e-05
2.70985e-06
0.0240473
0.0221968
0.0218859
0.0230325
0.0247778
0.0257993
0.0250513
0.0222272
0.0178856
0.0130141
0.00853885
0.00506511
0.00293774
0.00200054
0.00171877
0.00165493
0.00163847
0.00162476
0.00160181
0.00157067
0.0015365
0.00151303
0.00150611
0.00151282
0.00152513
0.00151832
0.00144354
0.00124199
0.000888323
0.000462776
0.00016082
5.36677e-05
1.03345e-05
2.22108e-06
0.0233259
0.0218257
0.0219058
0.0232204
0.0245853
0.0246943
0.0228336
0.0191872
0.0146287
0.0101151
0.00633671
0.00371837
0.00233979
0.00183709
0.00172477
0.00171941
0.00172865
0.00173007
0.00171347
0.00168043
0.0016361
0.00158734
0.00153925
0.00150993
0.00149358
0.00148152
0.00144454
0.00132983
0.00108069
0.000690135
0.00027373
7.14893e-05
1.30384e-05
3.42874e-06
0.0226755
0.0215174
0.0219327
0.0232298
0.0240391
0.0232201
0.0204733
0.0163887
0.0119397
0.00791936
0.00483167
0.00292738
0.00206819
0.0018218
0.00180444
0.00183687
0.00186525
0.00187805
0.00186721
0.00183391
0.00178167
0.00171571
0.00164298
0.00157327
0.00151637
0.00146999
0.00142232
0.00133716
0.00115801
0.000839507
0.000425493
0.000108038
1.91321e-05
5.65175e-06
0.0221006
0.0212787
0.021937
0.0230564
0.0232152
0.0215518
0.0181845
0.0139612
0.0097964
0.00630107
0.00383953
0.00249172
0.00198021
0.00188773
0.00192843
0.00198701
0.00202958
0.00205074
0.0020459
0.00201612
0.00196334
0.00189028
0.00180126
0.00170301
0.00160557
0.0015176
0.00143597
0.0013426
0.0011926
0.000929203
0.000539573
0.000162255
2.50379e-05
8.41673e-06
0.0216048
0.0211028
0.0219016
0.0227214
0.0222074
0.0198403
0.0160977
0.0119331
0.00812385
0.00513513
0.00320829
0.0022765
0.0019949
0.00199721
0.00207465
0.00215064
0.00220306
0.00222894
0.00222968
0.00220575
0.00215796
0.00208664
0.00199283
0.00187982
0.00175456
0.00162734
0.00150529
0.00138337
0.00123312
0.00100144
0.000644495
0.000237439
3.4189e-05
1.09519e-05
0.0211894
0.0209788
0.0218209
0.0222612
0.0211063
0.0181949
0.0142704
0.0102756
0.00683842
0.00431222
0.00282336
0.00219523
0.00206531
0.00212672
0.00222673
0.00231288
0.00237103
0.00239904
0.00240453
0.00238762
0.00234847
0.00228561
0.00219695
0.00208176
0.00194301
0.00178869
0.00162953
0.00147101
0.00130081
0.00107826
0.000748053
0.000326076
4.76325e-05
1.24542e-05
0.0208444
0.0208934
0.0216995
0.0217182
0.0199872
0.0166819
0.0127111
0.0089389
0.00586248
0.003743
0.00260292
0.00219337
0.00216326
0.00226083
0.00237286
0.0024627
0.0025221
0.00255182
0.00256095
0.00255113
0.00252247
0.0024724
0.00239638
0.00228984
0.00215109
0.00198402
0.00179836
0.00160495
0.00140436
0.00117157
0.000852858
0.000424498
7.03067e-05
1.32818e-05
0.0205796
0.0208425
0.021547
0.0211326
0.0189054
0.0153333
0.011403
0.00787101
0.0051297
0.00335792
0.00249036
0.00223674
0.00227172
0.0023901
0.0025065
0.00259529
0.00265281
0.00268231
0.00269361
0.00269015
0.00267245
0.00263742
0.00257877
0.00248876
0.00236117
0.00219494
0.00199642
0.00177725
0.00154557
0.00129063
0.000968564
0.000533413
0.000108324
1.3367e-05
0.020383
0.0208183
0.021369
0.0205371
0.0178975
0.0141577
0.0103176
0.00702447
0.00458549
0.00310468
0.00244729
0.002304
0.00238055
0.00250919
0.00262441
0.00270854
0.00276156
0.00278884
0.00280069
0.00280234
0.00279503
0.00277566
0.00273686
0.00266838
0.00255996
0.00240553
0.00220715
0.00197484
0.00171947
0.00143948
0.0011034
0.000658291
0.000168975
1.2175e-05
0.0202484
0.020812
0.0211625
0.0199545
0.016984
0.0131493
0.00942486
0.00635846
0.0041862
0.00294491
0.00244797
0.00238196
0.00248395
0.00261555
0.00272561
0.00280243
0.00284883
0.00287203
0.0028828
0.00288803
0.00288994
0.00288579
0.00286766
0.00282337
0.00273919
0.00260429
0.00241618
0.00218275
0.0019156
0.00161615
0.00126092
0.000802526
0.000256481
1.14975e-05
0.0201627
0.020819
0.0209447
0.019403
0.0161744
0.0122957
0.00869651
0.00583896
0.00389759
0.00285089
0.00247534
0.00246271
0.00257899
0.00270852
0.00281074
0.00287835
0.0029165
0.00293399
0.00294209
0.00294926
0.00295888
0.00296893
0.00297126
0.00295222
0.00289506
0.00278455
0.00261349
0.00238762
0.00212062
0.00181368
0.00144126
0.000967668
0.000374035
3.21678e-05
0.0201141
0.0208198
0.0207278
0.0188932
0.0154696
0.0115819
0.00810787
0.00543808
0.00369333
0.00280288
0.00251825
0.0025417
0.00266458
0.00278872
0.00288138
0.00293863
0.00296736
0.00297774
0.00298167
0.00298906
0.0030047
0.00302759
0.00304969
0.00305607
0.00302721
0.00294373
0.00279366
0.00258032
0.00232081
0.00202098
0.00164561
0.0011537
0.000522565
9.70275e-05
0.0200958
0.0208154
0.0205207
0.0184333
0.0148664
0.010993
0.00763786
0.00513335
0.00355345
0.00278695
0.00256957
0.00261654
0.00274075
0.00285744
0.0029397
0.00298601
0.0030046
0.00300677
0.00300516
0.00301108
0.00303096
0.00306515
0.00310599
0.00313748
0.00313739
0.00308226
0.00295518
0.00275629
0.00250682
0.00222396
0.00186688
0.00135907
0.000701972
0.00024208
0.0201003
0.0208099
0.0203306
0.0180286
0.0143601
0.0105157
0.00726897
0.00490695
0.003463
0.00279342
0.00262484
0.00268618
0.00280819
0.00291635
0.00298801
0.00302336
0.00303152
0.00302471
0.00301641
0.00301929
0.00304165
0.0030855
0.00314386
0.00319982
0.00322847
0.0032022
0.00309899
0.00291476
0.002674
0.00241125
0.00208877
0.00157971
0.000908731
0.000495971
0.0201206
0.0208063
0.0201628
0.0176821
0.0139446
0.0101373
0.00698678
0.00474496
0.00341095
0.00281567
0.00268143
0.00275038
0.00286786
0.00296711
0.00302851
0.00305333
0.00305121
0.00303504
0.00301919
0.00301774
0.00304102
0.00309294
0.00316748
0.00324697
0.00330389
0.00330642
0.00322726
0.00305722
0.00282213
0.00257458
0.00229883
0.00181686
0.0011335
0.000854027
0.0201517
0.0208079
0.0200214
0.0173947
0.0136138
0.00984715
0.00677977
0.00463673
0.00338934
0.00284929
0.00273784
0.00280935
0.0029208
0.00301124
0.00306307
0.00307814
0.0030663
0.00304081
0.00301699
0.00301039
0.00303344
0.00309212
0.00318147
0.00328325
0.00336743
0.00339809
0.00334267
0.00318628
0.00295391
0.00271481
0.0024887
0.00206122
0.00136343
0.00126587
0.0201901
0.0208171
0.0199094
0.0171658
0.0133616
0.00963652
0.00663891
0.00457437
0.00339262
0.00289146
0.00279338
0.00286349
0.00296793
0.0030499
0.00309306
0.00309939
0.00307869
0.00304443
0.00301278
0.00300088
0.00302326
0.00308788
0.00319087
0.00331345
0.00342326
0.0034805
0.00344772
0.00330434
0.00307251
0.0028348
0.00265288
0.00229881
0.00158637
0.00166553
0.0202278
0.0208355
0.0198286
0.0169941
0.0131827
0.00949842
0.00655746
0.00455231
0.00341718
0.00294063
0.0028479
0.00291332
0.00300998
0.00308388
0.00311922
0.00311787
0.00308942
0.00304741
0.00300887
0.00299248
0.00301471
0.00308522
0.00320102
0.00334275
0.00347588
0.00355712
0.00354476
0.00341313
0.0031807
0.00293882
0.00279177
0.00251976
0.00179622
0.00200403
0.0202628
0.0208642
0.01978
0.0168779
0.0130724
0.00942747
0.00653066
0.00456702
0.00346102
0.00299624
0.00290176
0.00295946
0.00304751
0.00311341
0.00314155
0.00313343
0.0030985
0.0030504
0.00300696
0.00298818
0.00301198
0.00308924
0.00321744
0.00337654
0.00353003
0.00363155
0.00363604
0.00351389
0.00328039
0.00303189
0.00290804
0.00271894
0.0019922
0.00225049
0.0202957
0.0209037
0.0197642
0.0168149
0.0130267
0.00941962
0.00655551
0.00461685
0.0035236
0.00305901
0.00295617
0.00300295
0.00308105
0.00313828
0.00315911
0.00314491
0.00310506
0.00305355
0.00300867
0.00299104
0.00301939
0.00310515
0.00324577
0.00342031
0.00359045
0.0037074
0.00372369
0.00360749
0.00337268
0.00311838
0.00300586
0.00289362
0.00217705
0.0023862
0.0203272
0.0209543
0.0197807
0.0168026
0.013042
0.00947148
0.00663024
0.00470204
0.00360501
0.00313305
0.00301589
0.00304673
0.00311076
0.00315695
0.00317094
0.00315188
0.0031092
0.00305722
0.00301463
0.00300227
0.00303922
0.00313675
0.00329131
0.00348026
0.00366316
0.00378911
0.00380969
0.00369453
0.00345809
0.00320161
0.00309475
0.00304336
0.00234942
0.00240987
0.020358
0.0210156
0.0198277
0.0168369
0.0131109
0.00957551
0.00675116
0.00482733
0.00372309
0.00322954
0.00308612
0.00309332
0.0031385
0.00317255
0.00317931
0.00315606
0.00311219
0.00306223
0.00302538
0.00302255
0.00307269
0.0031861
0.00335728
0.00356099
0.00375418
0.00388404
0.00390164
0.0037789
0.0035357
0.00327969
0.00318385
0.00317356
0.00251066
0.00233952
0.0203885
0.0210808
0.019893
0.0169064
0.0132328
0.00974145
0.00693473
0.00500702
0.00388187
0.00335279
0.00317166
0.00314722
0.00316892
0.00318895
0.00318711
0.00316009
0.00311648
0.00307111
0.00304381
0.0030554
0.00312403
0.00325803
0.00344873
0.00366731
0.00386771
0.00399539
0.00400186
0.0038631
0.00360731
0.0033515
0.00327072
0.00330032
0.00264671
0.00220194
0.0204198
0.0211507
0.0199768
0.0170118
0.0134048
0.00996704
0.00718105
0.00524384
0.00408634
0.00350931
0.00327951
0.00321471
0.00320865
0.00321164
0.00319941
0.00316857
0.00312653
0.00308873
0.00307543
0.00310704
0.00320004
0.0033594
0.00357195
0.00380434
0.00400723
0.00412486
0.00411049
0.00394642
0.00367236
0.0034168
0.00335433
0.00342199
0.00276874
0.00201727
0.0204551
0.0212283
0.02008
0.0171545
0.013618
0.010247
0.00749053
0.00554173
0.00434338
0.00370789
0.00341908
0.00330548
0.00326654
0.00324809
0.00322369
0.00318877
0.00314966
0.00312305
0.00312905
0.00318692
0.00331027
0.00349909
0.00373428
0.00397724
0.00417536
0.00427257
0.00422575
0.00402637
0.00372908
0.00347495
0.00343282
0.00352233
0.00287207
0.00180053
0.0204986
0.0213174
0.0202039
0.0173334
0.0138705
0.0105797
0.00786421
0.00590569
0.00466129
0.00395906
0.00360123
0.0034321
0.0033547
0.00331009
0.00327131
0.00323189
0.00319728
0.00318628
0.00321766
0.00330833
0.00346727
0.00368783
0.00394364
0.0041905
0.00437304
0.00443631
0.00434338
0.00409844
0.0037745
0.00352434
0.00350354
0.00359455
0.00294969
0.00156339
0.0205561
0.0214226
0.0203502
0.0175472
0.0141631
0.0109647
0.00830277
0.00634033
0.005048
0.00427256
0.00383944
0.00360983
0.00348878
0.00341383
0.00335838
0.00331418
0.00328612
0.0032961
0.00335942
0.00348881
0.00368652
0.00393751
0.00420751
0.00444674
0.00459826
0.00461044
0.00445591
0.00415579
0.00380448
0.00356289
0.00356238
0.00363221
0.00299114
0.00131932
0.0206347
0.02155
0.0205219
0.0177953
0.0144988
0.0113979
0.00880161
0.00684624
0.00550624
0.00465699
0.00414953
0.00385725
0.00368826
0.0035803
0.00350664
0.00345807
0.00343976
0.00347689
0.00357807
0.00374976
0.00398527
0.00425982
0.00453108
0.00474483
0.00484438
0.00478453
0.00455196
0.00418932
0.00381421
0.00358775
0.00360264
0.00364042
0.00298484
0.00108092
0.0207433
0.0217074
0.0207233
0.018079
0.0148831
0.0118745
0.00934709
0.00740855
0.00603621
0.00512581
0.00454993
0.00419639
0.00397845
0.00383633
0.0037442
0.003693
0.00369139
0.00376009
0.00390203
0.00411458
0.00438001
0.0046632
0.00491447
0.00507711
0.00509773
0.00494186
0.00461577
0.00418805
0.00379984
0.0035957
0.00361413
0.00360967
0.00291585
0.000850889
0.0208881
0.0219042
0.0209607
0.0184027
0.015312
0.0123986
0.00994568
0.00803891
0.00665218
0.00569579
0.00506168
0.00465273
0.00438847
0.00421387
0.00410509
0.00405437
0.0040766
0.00417963
0.00436037
0.00460445
0.00488204
0.00514833
0.00534842
0.00542593
0.00533515
0.00505834
0.00462775
0.00414137
0.00375042
0.00358237
0.00358997
0.00352835
0.00276869
0.000640705
0.0210804
0.022151
0.0212431
0.0187685
0.0157839
0.0129772
0.0106116
0.00875277
0.00737038
0.00638612
0.00570855
0.00525505
0.0049513
0.00474942
0.00462846
0.00458243
0.00463198
0.00476858
0.00497776
0.00523222
0.00549099
0.00570209
0.00580873
0.00575932
0.00552167
0.00510274
0.0045673
0.00404208
0.00367531
0.00354834
0.00352476
0.00338038
0.00253436
0.000458625
0.0213408
0.0224589
0.0215817
0.0191792
0.0163094
0.0136238
0.0113609
0.00956804
0.00821088
0.00722
0.00651821
0.00603616
0.00570433
0.00548406
0.00535772
0.00532097
0.00539714
0.00555477
0.00576635
0.00599302
0.00618588
0.00628963
0.00625013
0.00602685
0.00560987
0.00504008
0.00441867
0.00389064
0.00357482
0.00347892
0.00339398
0.00313881
0.00220552
0.000389044
0.0216928
0.0228479
0.0219884
0.0196516
0.0169067
0.0143588
0.0122166
0.0105102
0.00920153
0.00822842
0.00752567
0.00703526
0.0066904
0.00646232
0.00633651
0.00631138
0.0063981
0.00654312
0.00670896
0.00684975
0.00691318
0.00684492
0.00659998
0.0061583
0.00554411
0.00484027
0.00417873
0.00369348
0.00344271
0.00334728
0.00315772
0.00276508
0.00175665
0.00035057
0.0221686
0.0233392
0.0225002
0.0202126
0.017604
0.0152133
0.0132132
0.0116168
0.0103826
0.00945416
0.00877565
0.0082968
0.00795176
0.00772032
0.00759092
0.00757507
0.00762018
0.0076888
0.0077372
0.00771628
0.00757348
0.00726145
0.00675506
0.00606897
0.00527402
0.00449227
0.00385873
0.00345412
0.0032556
0.00310091
0.00275728
0.00220813
0.00115679
0.000298146
0.0228166
0.0239806
0.023162
0.0209048
0.0184475
0.016237
0.0144033
0.0129422
0.0118085
0.0109497
0.0103155
0.00985392
0.00950455
0.00925311
0.0090884
0.009012
0.00894969
0.00886367
0.00871036
0.00844144
0.00800976
0.00738798
0.0065896
0.00568103
0.0047788
0.00401246
0.00346967
0.00315295
0.00295322
0.00266263
0.00213117
0.00148479
0.000623942
0.000233405
0.0237196
0.0248493
0.024049
0.0218011
0.0195146
0.017508
0.0158626
0.0145565
0.0135393
0.0127577
0.0121591
0.0116796
0.011284
0.0109609
0.0107011
0.0104666
0.0101977
0.00985745
0.00940313
0.00879194
0.00799818
0.00704065
0.0059925
0.00496697
0.00408636
0.00343033
0.00300301
0.00272837
0.0024451
0.00197468
0.00131403
0.000616295
0.000285776
0.000172113
0.0250099
0.0260749
0.0252943
0.0230274
0.0209281
0.0191346
0.0176754
0.0165078
0.0155721
0.014809
0.0141603
0.0135754
0.0130499
0.0125702
0.0121148
0.0116081
0.0110206
0.0103146
0.00945654
0.00843351
0.00727922
0.00607825
0.00494586
0.00398648
0.00325718
0.00275003
0.00239952
0.00209034
0.00167483
0.0011032
0.000505614
0.000236675
0.000127503
0.000103611
0.0270067
0.0279172
0.027135
0.0247632
0.0227933
0.0211201
0.0197302
0.0185614
0.0175489
0.0166423
0.0157919
0.0150012
0.014256
0.0135232
0.0127294
0.0118365
0.0108192
0.00966355
0.00838483
0.00704157
0.00572785
0.00455074
0.0035853
0.0028501
0.00231735
0.00192565
0.00158964
0.00121725
0.000769487
0.000341279
0.000148799
9.37453e-05
5.3442e-05
4.52867e-05
0.0300594
0.03058
0.0296187
0.0267082
0.0245381
0.0226636
0.0210501
0.0196043
0.0182705
0.0170446
0.0159076
0.0148351
0.013796
0.012658
0.0114304
0.0101199
0.00873904
0.00732574
0.00594975
0.00469182
0.00362028
0.00277151
0.00213262
0.00164646
0.00127097
0.000956779
0.000660372
0.000359764
0.000179617
8.16835e-05
4.55146e-05
3.40745e-05
1.92322e-05
1.35337e-05
0.035681
0.0325897
0.0302803
0.0256456
0.0224047
0.0198368
0.017748
0.0159761
0.0144142
0.0130146
0.0117409
0.0105214
0.0092922
0.00812348
0.00701208
0.00595151
0.0049416
0.00398539
0.00309673
0.00232683
0.00170081
0.00118906
0.000791247
0.000498783
0.00029224
0.000157809
9.23417e-05
5.00214e-05
2.56385e-05
1.35195e-05
1.00758e-05
8.51382e-06
4.76629e-06
2.6212e-06
0.0268872
0.017758
0.0115566
0.00829083
0.00776076
0.00774492
0.00770095
0.00772428
0.00778852
0.00783875
0.0078428
0.00777918
0.00761443
0.00730439
0.0068105
0.00609218
0.00511642
0.00390586
0.00259025
0.00138795
0.000559198
0.00016227
3.58112e-05
3.68483e-05
3.61415e-05
3.02781e-05
2.43296e-05
1.79297e-05
1.45264e-05
1.37163e-05
1.18417e-05
6.97549e-06
2.12367e-06
2.65559e-07
0.0021351
0.00393128
0.00811286
0.0107566
0.0114291
0.0108155
0.00271585
0.00540151
0.0105931
0.0131893
0.013466
0.012521
0.0031974
0.00709338
0.0131407
0.0155204
0.0154565
0.0144024
0.00358763
0.00893424
0.0156249
0.0177251
0.0175287
0.0166379
0.00391637
0.0108571
0.0179138
0.0198752
0.0198039
0.0193078
0.00422997
0.01274
0.0200131
0.022086
0.0222417
0.0221316
0.00453632
0.0144633
0.0220742
0.0243444
0.0247445
0.0248504
0.00478266
0.0161136
0.0241001
0.0265664
0.0271694
0.0272905
0.00497303
0.0177259
0.0260523
0.0286235
0.0292236
0.0293194
0.00512235
0.019294
0.0279161
0.0305443
0.0309244
0.0308271
0.00523041
0.0208014
0.0296213
0.0320676
0.0322001
0.0317682
0.00526166
0.0222212
0.0312295
0.0332643
0.0330399
0.0321698
0.00518403
0.0234367
0.0324448
0.0341202
0.0334659
0.0321126
0.00512333
0.024647
0.0333889
0.0346542
0.0335323
0.0317022
0.00508961
0.0255483
0.0340594
0.034899
0.0333095
0.0310483
0.00550895
0.0263141
0.0344933
0.0349003
0.0328714
0.0302486
0.00621777
0.0269275
0.0347231
0.034707
0.0322839
0.0293774
0.00696667
0.0273638
0.0347754
0.0343639
0.0316012
0.0284868
0.00773148
0.0276266
0.0346738
0.0339086
0.0308636
0.0276102
0.00851053
0.027716
0.0344425
0.0333708
0.0300973
0.026762
0.00925457
0.0276663
0.0341058
0.0327739
0.0293216
0.0259539