/*--------------------------------*- C++ -*----------------------------------*\
| =========                 |                                                 |
| \\      /  F ield         | OpenFOAM: The Open Source CFD Toolbox           |
|  \\    /   O peration     | Version:  v2012                                 |
|   \\  /    A nd           | Website:  www.openfoam.com                      |
|    \\/     M anipulation  |                                                 |
\*---------------------------------------------------------------------------*/
FoamFile
{
    version     2.0;
    format      ascii;
    class       volScalarField;
    location    "567";
    object      nut;
}
// * * * * * * * * * * * * * * * * * * * * * * * * * * * * * * * * * * * * * //

dimensions      [0 2 -1 0 0 0 0];


internalField   nonuniform List<scalar> 
6018
(
4.83787e-05
5.59146e-05
6.31833e-05
7.02198e-05
7.71257e-05
8.4096e-05
9.1365e-05
9.91849e-05
0.000107836
0.000117653
0.000129049
0.000142557
0.000158883
0.000178988
0.000204213
0.000236463
0.000278481
0.000334288
0.000409986
0.000515288
0.000223205
0.000255898
0.000291478
0.000329997
0.000371241
0.000415021
0.000461755
0.00051238
0.000568043
0.000630129
0.000700319
0.000780745
0.000874182
0.000984218
0.00111578
0.00127609
0.00147612
0.00173388
0.00208621
0.00261748
0.000816543
0.000916839
0.00101526
0.00111125
0.00120488
0.00129702
0.00138916
0.00148299
0.00158027
0.00168269
0.00179194
0.00190978
0.00203815
0.00217878
0.00233316
0.00250237
0.00268639
0.0028827
0.00308425
0.00327527
0.00157918
0.0016967
0.0018046
0.0019046
0.00199864
0.00208866
0.00217643
0.00226339
0.00235068
0.00243918
0.00252946
0.00262181
0.00271616
0.00281224
0.00290934
0.00300612
0.00310068
0.00319068
0.00327369
0.00334786
0.0020905
0.00218188
0.00226514
0.00234259
0.00241601
0.00248678
0.00255585
0.00262387
0.00269122
0.00275805
0.00282438
0.00289001
0.00295464
0.00301793
0.00307952
0.00313903
0.00319623
0.00325115
0.00330419
0.00335621
0.00222557
0.0022868
0.00234587
0.00240419
0.00246262
0.00252168
0.00258165
0.00264261
0.00270453
0.00276709
0.00283032
0.00289381
0.002957
0.00301935
0.00308032
0.00313944
0.00319642
0.00325122
0.00330421
0.00335621
0.00197019
0.00200564
0.00204556
0.00209028
0.00213984
0.00219422
0.00225341
0.00231737
0.00238808
0.00246495
0.00254693
0.00263339
0.00272367
0.00281699
0.0029122
0.00300771
0.00310148
0.00319102
0.0032738
0.00334787
0.00130836
0.00131863
0.00133775
0.00136489
0.00139935
0.00144082
0.00149307
0.00155829
0.00163434
0.00172116
0.00181909
0.00192885
0.00205139
0.00218774
0.00233901
0.00250601
0.00268846
0.00288372
0.00308465
0.00327535
0.000438358
0.000435316
0.000439045
0.000448003
0.000461124
0.000482723
0.000513033
0.000551029
0.000596993
0.000651682
0.000716313
0.000792618
0.000882939
0.000990596
0.00112035
0.00127928
0.00147821
0.00173514
0.00208691
0.00261773
8.25766e-05
8.17203e-05
8.21413e-05
8.39989e-05
8.70878e-05
9.12799e-05
9.65186e-05
0.000102863
0.000110449
0.0001195
0.000130347
0.000143459
0.000159498
0.000179396
0.000204472
0.000236616
0.000278562
0.000334325
0.000409998
0.000515289
4.43902e-07
5.45185e-07
5.44204e-07
4.39832e-07
2.78289e-07
1.39842e-07
6.0526e-08
2.74211e-08
1.97285e-08
3.64972e-08
1.12287e-07
2.56747e-07
4.16111e-07
5.24968e-07
5.52717e-07
5.47217e-07
5.36116e-07
5.5083e-07
6.05606e-07
6.53416e-07
6.78357e-07
7.10676e-07
7.58285e-07
7.67171e-07
7.49468e-07
8.84094e-07
1.76173e-06
3.47594e-06
6.50962e-06
1.11295e-05
1.73047e-05
2.46341e-05
3.25205e-05
4.05218e-05
1.21719e-05
1.00281e-05
6.52726e-06
4.00878e-06
2.47593e-06
1.56109e-06
1.01608e-06
7.15257e-07
6.5331e-07
1.35128e-06
4.70217e-06
1.02874e-05
1.51359e-05
1.6797e-05
1.61255e-05
1.5969e-05
1.71934e-05
2.04434e-05
2.44914e-05
2.80296e-05
2.95339e-05
3.18417e-05
3.68636e-05
4.24642e-05
4.88467e-05
5.6632e-05
6.60966e-05
7.71769e-05
9.00942e-05
0.000105297
0.000123063
0.000143646
0.000167016
0.000193375
6.98477e-05
6.7858e-05
5.72e-05
3.95277e-05
2.5156e-05
1.61409e-05
1.09698e-05
8.30251e-06
8.16041e-06
1.55993e-05
5.03915e-05
0.000107462
0.0001592
0.000188193
0.000206061
0.000203199
0.000201109
0.000204836
0.000199482
0.00018967
0.00018053
0.000175184
0.000175585
0.000181759
0.000194003
0.000212855
0.000239101
0.000273697
0.000318059
0.000373736
0.000442413
0.000524052
0.000616272
0.000715118
0.000117595
0.00012372
0.000118985
0.000100967
7.54959e-05
5.30404e-05
3.79155e-05
3.00836e-05
3.29118e-05
6.99744e-05
0.000195315
0.000357417
0.000480447
0.000553961
0.000548202
0.000492968
0.000449371
0.000418314
0.000387366
0.000359671
0.00034097
0.000335293
0.000344214
0.000368244
0.000408059
0.000464786
0.000539682
0.000633541
0.00074643
0.000876073
0.00101757
0.00116481
0.00131084
0.00144992
0.000165305
0.000176928
0.000175026
0.00016055
0.000134018
0.000103445
7.90168e-05
6.91732e-05
0.000101592
0.000248599
0.000476168
0.000666641
0.000767731
0.000773388
0.00071631
0.000634609
0.000587337
0.000561784
0.000523486
0.000496269
0.000490413
0.000508153
0.000550424
0.00061767
0.000709793
0.00082554
0.000961994
0.00111417
0.0012753
0.0014378
0.00159451
0.00173991
0.00187091
0.00198733
0.000240601
0.000256115
0.000251861
0.000231064
0.000197952
0.000160414
0.000133026
0.000149069
0.000296596
0.000579283
0.000827929
0.000959432
0.000952987
0.000852506
0.000777467
0.000733293
0.000712372
0.000664546
0.000632491
0.000629127
0.000657101
0.000716526
0.000805917
0.000922018
0.00105944
0.00121078
0.00136745
0.00152095
0.00166432
0.00179307
0.00190556
0.00200258
0.0020862
0.00215946
0.000360335
0.000378082
0.000363851
0.00032365
0.000273373
0.000229355
0.000225266
0.000344322
0.000631842
0.000941289
0.00110669
0.00107122
0.000992025
0.000927465
0.000888943
0.000846856
0.000783777
0.000747314
0.000744839
0.00077868
0.000846919
0.000944585
0.00106417
0.00119616
0.00133017
0.00145663
0.00156837
0.00166164
0.00173611
0.00179414
0.00183936
0.00187594
0.00190766
0.001938
0.000532761
0.000542807
0.000504203
0.000433067
0.000364534
0.000338025
0.000423194
0.000677224
0.00101771
0.00121167
0.00120526
0.00114415
0.00108983
0.00105488
0.000958125
0.000883277
0.000839553
0.000833148
0.00086458
0.000929024
0.00101747
0.0011183
0.00121907
0.00130848
0.00137826
0.00142429
0.00144654
0.00144804
0.00143351
0.00140803
0.00137709
0.00134674
0.00132353
0.00130987
0.000749395
0.000737486
0.000657587
0.000556002
0.00049554
0.000546887
0.000760337
0.00105941
0.00131198
0.00136997
0.00131742
0.00126723
0.00117189
0.00105708
0.000965991
0.000910222
0.000893304
0.000913001
0.000961029
0.00102463
0.00108908
0.00114058
0.00116867
0.00116792
0.00113794
0.00108245
0.00100749
0.00092009
0.000826966
0.000734091
0.00064675
0.000569
0.000504672
0.000462127
0.0009818
0.000928596
0.000809433
0.000706874
0.000714544
0.000861033
0.00110881
0.0013552
0.00150091
0.00150911
0.00141637
0.00128119
0.00114626
0.00103634
0.000963224
0.000929714
0.000930402
0.000953839
0.000984601
0.00100664
0.00100685
0.000977671
0.000918051
0.000832697
0.000730148
0.000620245
0.000511949
0.000411803
0.000323803
0.000249632
0.000189334
0.000142831
0.00011001
8.98346e-05
2.70022e-09
1.49151e-08
3.61342e-08
6.43073e-08
1.39174e-07
2.87797e-07
1.73779e-08
2.15591e-07
1.63696e-06
5.5081e-06
9.61078e-06
1.20889e-05
3.97508e-08
1.14006e-06
1.20443e-05
3.05283e-05
4.88607e-05
6.27209e-05
5.74096e-08
2.72621e-06
2.00008e-05
4.68557e-05
7.52108e-05
9.98162e-05
7.18394e-08
4.69503e-06
2.69632e-05
6.21152e-05
0.000101788
0.000138043
1.47556e-07
7.75024e-06
3.73952e-05
8.60639e-05
0.000144577
0.000199751
6.65296e-07
1.24772e-05
5.4269e-05
0.000126431
0.000215931
0.000300295
2.15195e-06
1.96438e-05
8.21358e-05
0.000194713
0.000333556
0.000456592
4.96561e-06
3.06551e-05
0.00012903
0.000307714
0.00051457
0.000674616
8.65569e-06
4.77199e-05
0.000207139
0.000483441
0.000763634
0.000937275
0.00119892
0.00109188
0.000966081
0.000921239
0.00100221
0.00118472
0.00139795
0.00155305
0.00159292
0.00151955
0.00138016
0.00122789
0.00109746
0.00100462
0.000951411
0.000930575
0.000928631
0.000929761
0.000919783
0.000889663
0.000837257
0.000766616
0.000685359
0.000601301
0.000519083
0.000442194
0.000371451
0.000306489
0.000246603
0.000191101
0.000139668
9.29236e-05
5.16974e-05
2.27562e-05
0.00137247
0.00124067
0.00115269
0.00116732
0.00128232
0.00144697
0.00158913
0.00164641
0.00159711
0.00146657
0.0013047
0.00115527
0.0010415
0.000968078
0.000927663
0.000906827
0.00089107
0.000869136
0.0008357
0.000791478
0.000740945
0.000689232
0.000639688
0.000593026
0.000548192
0.000503746
0.000458107
0.000410878
0.000362906
0.000316101
0.000256326
0.000173121
5.44647e-05
4.2346e-06
0.00150977
0.00139533
0.00135216
0.00140062
0.0015106
0.00162466
0.00168406
0.00165395
0.00153922
0.00137747
0.00121433
0.00108123
0.000988938
0.000932786
0.000900744
0.000880122
0.000861908
0.00084246
0.000822604
0.000804807
0.000790578
0.000779162
0.000767796
0.000752969
0.000732143
0.000704457
0.000672454
0.000644757
0.000618066
0.000557674
0.000481982
0.000329975
7.89061e-05
2.98336e-06
0.00163405
0.00155247
0.00154082
0.00159391
0.00167052
0.00171873
0.00169858
0.00160002
0.00144572
0.00127623
0.00112791
0.0010192
0.000950769
0.000913438
0.000896184
0.000891127
0.000894723
0.00090619
0.000924971
0.000948637
0.000972535
0.000990691
0.000997534
0.000989696
0.000967744
0.000937891
0.000906151
0.000854897
0.000800911
0.000753922
0.000679761
0.000456866
0.000100957
2.68129e-06
0.00175362
0.00169868
0.00169874
0.00173329
0.00176024
0.00174016
0.0016536
0.00150988
0.00134067
0.00118257
0.00106062
0.000982447
0.000943224
0.000933849
0.000946683
0.000977109
0.0010219
0.00107681
0.00113531
0.00118883
0.00122844
0.00124679
0.0012401
0.00121002
0.00116815
0.00110989
0.00104229
0.000981003
0.000930581
0.000884544
0.000794428
0.000529577
0.000116741
2.51751e-06
0.00185976
0.0018195
0.00181418
0.00181552
0.00178674
0.00170579
0.00157199
0.00140719
0.00124451
0.00111277
0.00102666
0.000986837
0.000986744
0.00101883
0.00107665
0.00115395
0.00124249
0.00133149
0.00140864
0.00146213
0.00148304
0.00146721
0.00141697
0.00134481
0.001253
0.00116814
0.00109065
0.00102535
0.000976005
0.000929858
0.000837507
0.000561465
0.00012484
2.2489e-06
0.00183967
0.00175358
0.00175252
0.00184362
0.00176258
0.0016354
0.00147611
0.00131245
0.00117406
0.00108121
0.00104058
0.00104897
0.0010991
0.00118252
0.00128956
0.00140799
0.00152274
0.00161776
0.00167837
0.00169339
0.0016571
0.00157448
0.00145492
0.0013383
0.00122746
0.00113021
0.0010511
0.000991512
0.000949781
0.000912192
0.000829436
0.000558581
0.000123895
1.94884e-06
0.00173276
0.00165135
0.00166894
0.00180529
0.00170377
0.00154883
0.00138557
0.00124268
0.0011438
0.00110086
0.00111517
0.0011801
0.00128539
0.00141786
0.00156121
0.00169641
0.00180374
0.00186549
0.00186741
0.00179956
0.00166496
0.00150779
0.0013578
0.00122257
0.00110687
0.0010138
0.000946271
0.000900427
0.000873494
0.000851434
0.000782686
0.000522862
0.000111456
1.89245e-06
0.00161942
0.00155651
0.00160414
0.00177772
0.00162754
0.00146442
0.0013174
0.00121218
0.00116494
0.0011809
0.00125574
0.00137745
0.00152962
0.00169191
0.0018415
0.00195537
0.00201285
0.00199641
0.00189058
0.00168841
0.00149096
0.00130995
0.00115324
0.00102303
0.000923591
0.000850545
0.000801728
0.000774714
0.000765955
0.000761276
0.000703818
0.000457415
9.27014e-05
1.84274e-06
0.00151544
0.0014806
0.00156618
0.00171195
0.00155058
0.00139852
0.00128498
0.00123006
0.0012431
0.00132159
0.00145308
0.00161828
0.00179291
0.00195043
0.00206478
0.00211296
0.0020752
0.00193073
0.00165999
0.00141317
0.00119726
0.00102081
0.000881623
0.000778621
0.000708042
0.000662103
0.000636546
0.00062995
0.00064099
0.000652285
0.000605298
0.000379183
7.17625e-05
1.71773e-06
0.00142927
0.00142772
0.00155711
0.00164298
0.00148688
0.00136231
0.00129536
0.00129997
0.00137536
0.00150937
0.0016806
0.00186125
0.00202079
0.00213019
0.00216452
0.00210363
0.00192786
0.00161523
0.00129841
0.00104492
0.000841039
0.000697919
0.000596445
0.000529783
0.000490286
0.000470668
0.000467691
0.000481798
0.000513079
0.00053927
0.000502011
0.000296918
5.13414e-05
1.47879e-06
0.00136402
0.00139994
0.00158637
0.00158225
0.0014463
0.00136288
0.00135203
0.00141706
0.00154636
0.00171691
0.00189808
0.00205554
0.00215665
0.00217457
0.00208935
0.00188681
0.00155408
0.00119509
0.000884703
0.000665602
0.000515677
0.000418972
0.000358986
0.000324146
0.000307286
0.000304911
0.000317674
0.000349084
0.000397915
0.000435298
0.000396408
0.000213617
3.20301e-05
1.22849e-06
0.00132198
0.00140242
0.0016675
0.00153905
0.00143621
0.00140327
0.00144906
0.00156641
0.00173036
0.00190784
0.0020612
0.00215402
0.00215677
0.00204951
0.00182229
0.00147507
0.00109742
0.000769416
0.000532136
0.000389901
0.000308559
0.000260305
0.00022918
0.000209094
0.000196753
0.00019389
0.000206273
0.000242365
0.000296762
0.000330829
0.000281032
0.000125219
1.67904e-05
1.00142e-06
0.00130435
0.00143666
0.00163604
0.00151774
0.00145683
0.00147649
0.00157355
0.0017253
0.00189619
0.00204546
0.00213301
0.00212607
0.00200383
0.00176001
0.00140841
0.0010028
0.000670543
0.000449141
0.00032832
0.000266332
0.000230776
0.000206777
0.000187517
0.000169691
0.000152586
0.000139697
0.000139336
0.000161699
0.000201233
0.000214003
0.000161002
6.51833e-05
8.92219e-06
7.20098e-07
0.00131404
0.00151633
0.00160824
0.00152056
0.00150618
0.0015737
0.0017067
0.00186826
0.00201475
0.00210215
0.00209399
0.0019673
0.00171637
0.0013577
0.000946342
0.0006019
0.000396921
0.000298202
0.00025081
0.000223674
0.000205015
0.000190183
0.00017619
0.000160457
0.000141482
0.000121001
0.000105948
0.000106152
0.000119984
0.000119976
8.47208e-05
3.37802e-05
4.83413e-06
4.40146e-07
0.00135521
0.00165475
0.00159664
0.00154481
0.00157473
0.0016806
0.00182872
0.00197312
0.00206609
0.00206655
0.00194845
0.00170527
0.00135373
0.000944328
0.000579639
0.000370095
0.000282749
0.000244141
0.00022161
0.00020548
0.000192899
0.000182313
0.000171936
0.000159454
0.000142431
0.000119876
9.47546e-05
7.54438e-05
6.86956e-05
6.47623e-05
4.49984e-05
1.81992e-05
2.65517e-06
2.26074e-07
0.00142882
0.00168248
0.00160025
0.00158638
0.00165441
0.00178229
0.00192298
0.00202544
0.00204359
0.0019465
0.0017253
0.00139557
0.00100164
0.000628764
0.000380614
0.000278332
0.000243019
0.000223435
0.000208407
0.000195811
0.000185246
0.00017629
0.000167965
0.000158568
0.000145631
0.000126553
0.000100226
7.00312e-05
4.68404e-05
3.7143e-05
2.52593e-05
1.03311e-05
1.46344e-06
9.89046e-08
0.00154938
0.00167324
0.00161682
0.00163823
0.00173477
0.00186645
0.00197885
0.00202087
0.00195483
0.00176652
0.00146754
0.00109834
0.000724613
0.000440546
0.00029725
0.000249416
0.000232114
0.000218886
0.000206072
0.000193703
0.000182409
0.000172557
0.000163939
0.000155676
0.00014603
0.0001324
0.00011194
8.28149e-05
4.889e-05
2.65749e-05
1.5828e-05
6.28478e-06
8.15905e-07
3.98323e-08
0.00173848
0.00167255
0.0016443
0.00169522
0.00180687
0.00192507
0.00199295
0.00196522
0.00181902
0.0015607
0.00121925
0.000852945
0.000539212
0.000347887
0.00027236
0.000250009
0.00023965
0.000229094
0.00021623
0.000201925
0.000187575
0.000174345
0.000162755
0.000152657
0.000143264
0.00013278
0.000118604
9.76894e-05
6.72309e-05
3.1465e-05
1.32329e-05
4.44971e-06
4.92684e-07
1.85075e-08
0.00174697
0.00167863
0.00167659
0.00175118
0.00186436
0.00195475
0.00196805
0.00187051
0.00165793
0.00135373
0.0010039
0.000671814
0.000431773
0.000314494
0.000278775
0.000270012
0.00026396
0.000254931
0.000241199
0.000223808
0.00020449
0.000185603
0.000168518
0.000153667
0.000141005
0.00012964
0.000117697
0.000102677
8.16883e-05
5.17208e-05
1.88178e-05
4.60826e-06
3.93465e-07
1.51694e-08
0.00174177
0.00169079
0.00171247
0.00180156
0.0019041
0.00195648
0.001912
0.00175274
0.00149258
0.00116829
0.000832147
0.000551308
0.000381524
0.000317379
0.000306041
0.000306603
0.000304287
0.000296362
0.000281256
0.000260345
0.000235814
0.000210027
0.000184936
0.000162886
0.000144044
0.00012823
0.000114251
0.000100078
8.32607e-05
6.13571e-05
3.07987e-05
6.79927e-06
5.14944e-07
2.34173e-08
0.00173933
0.00170625
0.00174901
0.00184359
0.00192574
0.00193446
0.00183493
0.00162649
0.00133745
0.00101147
0.000704912
0.000481227
0.000371107
0.000344522
0.000350343
0.000359084
0.000360694
0.000353853
0.000337271
0.000312489
0.000281936
0.000248415
0.000214703
0.000183319
0.000155992
0.000133033
0.000113939
9.70756e-05
8.01522e-05
6.06847e-05
3.76041e-05
1.02481e-05
7.62748e-07
3.85996e-08
0.00173968
0.00172486
0.00178427
0.00187617
0.00193102
0.00189461
0.00174676
0.00150271
0.00120004
0.000885743
0.000618207
0.000450395
0.000388524
0.000389724
0.000409638
0.000426492
0.000432456
0.000426857
0.000409036
0.000380601
0.00034408
0.000302512
0.000259142
0.00021709
0.000179051
0.000146645
0.000119949
9.79208e-05
7.83907e-05
5.87651e-05
3.69576e-05
1.34366e-05
9.8421e-07
5.7483e-08
0.00174287
0.00174597
0.00181699
0.00189946
0.00192286
0.00184315
0.00165563
0.00138831
0.00108338
0.000790138
0.000565923
0.000449055
0.000425826
0.000449035
0.000481717
0.000506914
0.000517858
0.000513353
0.000494786
0.000463332
0.000421426
0.000372102
0.000318818
0.000265247
0.000214921
0.00017068
0.000133927
0.000104347
8.01084e-05
5.84858e-05
3.6785e-05
1.51129e-05
1.32018e-06
7.47967e-08
0.00174885
0.00176883
0.00184654
0.00191441
0.00190471
0.00178572
0.00156745
0.00128679
0.00098795
0.00072185
0.000541548
0.00046938
0.000477398
0.000519014
0.000563532
0.000596981
0.000613253
0.000609964
0.000591309
0.000557833
0.000511732
0.000455782
0.000393287
0.000328115
0.000264517
0.000206562
0.000157199
0.000117442
8.61748e-05
6.07169e-05
3.7939e-05
1.66048e-05
1.79271e-06
8.50564e-08
0.00175718
0.00179266
0.00187283
0.00192254
0.00187997
0.00172688
0.00148589
0.00119944
0.000912696
0.000677183
0.000538978
0.000505201
0.000538813
0.00059612
0.000651208
0.000692027
0.000713054
0.00071221
0.000694138
0.000659732
0.000610983
0.000550251
0.000480343
0.000404808
0.00032811
0.000255329
0.000191123
0.00013839
9.73762e-05
6.58393e-05
4.026e-05
1.81905e-05
2.4049e-06
9.07087e-08
0.00176824
0.00181712
0.00189607
0.0019255
0.00185166
0.00166985
0.00141289
0.00112628
0.000855778
0.000652177
0.000552849
0.000551637
0.000606398
0.000677075
0.000741323
0.000788533
0.000813843
0.000815577
0.000798451
0.000763982
0.000714063
0.000650633
0.000575817
0.000492398
0.000404354
0.000317109
0.000236787
0.000168546
0.000114812
7.45556e-05
4.41984e-05
2.01902e-05
3.22587e-06
9.129e-08
0.0017815
0.00184171
0.00189787
0.00192482
0.00182221
0.00161678
0.00134926
0.00106659
0.000814957
0.000642988
0.000578612
0.000604782
0.000677053
0.000758968
0.000830876
0.000883353
0.000912211
0.000916232
0.000900074
0.000865982
0.00081592
0.000751544
0.000674333
0.000586107
0.00048981
0.000390287
0.000294304
0.000209059
0.000139794
8.78206e-05
5.03422e-05
2.30142e-05
4.40777e-06
8.31496e-08
0.00179664
0.00186582
0.00182994
0.00192171
0.00179347
0.001569
0.00129508
0.00101928
0.000787858
0.000646091
0.000612488
0.000661497
0.000748198
0.000839371
0.000917465
0.000974073
0.00100566
0.00101147
0.000996031
0.000962348
0.000912609
0.000848378
0.000770663
0.000680407
0.000579358
0.000471114
0.000361977
0.000260159
0.00017355
0.000106802
5.93398e-05
2.69335e-05
5.98834e-06
7.85231e-08
0.00181303
0.00188909
0.00177773
0.00191727
0.00176679
0.00152722
0.00125005
0.000983062
0.000772146
0.000658373
0.000651385
0.000719278
0.000817751
0.000916391
0.000999334
0.00105906
0.00109263
0.00109967
0.00108456
0.00105104
0.00100166
0.000938045
0.00086091
0.000770506
0.000667563
0.000554334
0.000435958
0.000320309
0.000216634
0.000132774
7.20575e-05
3.22661e-05
8.04935e-06
2.19679e-07
0.00183
0.00181707
0.00173798
0.00189989
0.00174305
0.00149175
0.00121363
0.000956582
0.00076564
0.000677164
0.000692814
0.000776148
0.000884095
0.00098863
0.00107529
0.00113731
0.00117223
0.00117999
0.00116477
0.00113103
0.0010818
0.00101892
0.000942869
0.00085332
0.00075019
0.000634719
0.000510969
0.000385836
0.00026801
0.000166715
8.97326e-05
3.94253e-05
1.06549e-05
6.62491e-07
0.00184719
0.0017498
0.00170751
0.00187726
0.0017228
0.00146261
0.00118518
0.000938519
0.000766379
0.000700226
0.000734804
0.000830577
0.000946003
0.00105509
0.00114452
0.00120819
0.00124397
0.00125199
0.0012362
0.00120181
0.00115246
0.00109029
0.00101562
0.000927459
0.000824926
0.000708564
0.000581897
0.000451442
0.000324531
0.000208624
0.00011368
4.90338e-05
1.39252e-05
1.6522e-06
0.00186432
0.00170271
0.00168396
0.00185692
0.00170638
0.00143964
0.00116403
0.000927641
0.000772653
0.000725732
0.000775814
0.000881392
0.00100256
0.00111504
0.00120647
0.00127125
0.00130749
0.00131535
0.00129855
0.00126305
0.00121329
0.00115185
0.00107887
0.000992564
0.000891067
0.000774233
0.000645412
0.000511889
0.000380987
0.000256595
0.000144841
6.19994e-05
1.80115e-05
3.38253e-06
0.00188113
0.00166922
0.00166539
0.00183893
0.00169396
0.00142264
0.00114952
0.000922846
0.000783027
0.000752225
0.000814652
0.000927705
0.00105308
0.00116792
0.00126067
0.0013261
0.00136243
0.00136974
0.00135146
0.00131442
0.00126399
0.00120338
0.00113251
0.00104862
0.000948651
0.000831558
0.000700431
0.000563991
0.000431843
0.000305932
0.000183084
7.95886e-05
2.30496e-05
5.81847e-06
0.00189747
0.00164442
0.0016504
0.00182253
0.00168565
0.00141135
0.00114105
0.000923191
0.000796323
0.00077856
0.00085042
0.000968843
0.00109702
0.0012133
0.00130671
0.00137229
0.00140833
0.00141471
0.00139453
0.00135554
0.00130429
0.00124467
0.00117642
0.00109564
0.000997807
0.000880845
0.000747258
0.000607054
0.000473587
0.000350772
0.000226208
0.00010299
2.92183e-05
8.61412e-06
0.00191323
0.00162569
0.00163791
0.00180674
0.00168148
0.00140552
0.00113813
0.000927908
0.000811624
0.000803883
0.000882459
0.00100431
0.00113397
0.00125075
0.00134412
0.00140933
0.00144463
0.00144967
0.0014272
0.00138606
0.00133401
0.00127572
0.00121063
0.00113361
0.00103851
0.000922213
0.000786428
0.000641845
0.00050554
0.000386539
0.000269409
0.00013282
3.672e-05
1.13208e-05
0.00189225
0.00161137
0.00162714
0.00179069
0.00168144
0.00140494
0.00114034
0.000936413
0.000828258
0.000827592
0.000910316
0.00103374
0.0011636
0.00127991
0.00137244
0.00143657
0.00147055
0.0014738
0.00144882
0.00140563
0.00135321
0.00129678
0.00123542
0.00116265
0.00107067
0.00095546
0.000818044
0.000669254
0.00052893
0.000411749
0.000306699
0.000168288
4.58787e-05
1.36085e-05
0.0018596
0.00160017
0.00161716
0.00177384
0.00168548
0.00140944
0.00114741
0.000948319
0.000845802
0.000849339
0.000933743
0.00105693
0.00118566
0.00130036
0.00139102
0.00145316
0.00148498
0.0014859
0.00145855
0.00141407
0.00136226
0.00130854
0.00125142
0.00118311
0.00109428
0.000980227
0.000841723
0.00068958
0.000545271
0.000427745
0.00033372
0.000206075
5.71688e-05
1.52713e-05
0.00183274
0.00159108
0.00160738
0.00175603
0.00169354
0.00141889
0.00115916
0.000963452
0.000864122
0.00086915
0.000952838
0.00107387
0.00120009
0.00131173
0.00139681
0.00145763
0.00148609
0.00148419
0.00145554
0.0014115
0.00136197
0.00131209
0.00125961
0.00119558
0.00110947
0.000996181
0.000856852
0.000702542
0.000555446
0.000436836
0.00034981
0.00024021
7.0935e-05
1.61859e-05
0.00181054
0.00158317
0.00159752
0.00173719
0.00170552
0.00143317
0.0011756
0.000981978
0.000883718
0.000888401
0.00096893
0.00108504
0.00120551
0.00128919
0.00138761
0.00144857
0.00147343
0.00146928
0.00144102
0.00139946
0.00135405
0.0013092
0.00126161
0.0012012
0.00111659
0.00100272
0.000862386
0.000707628
0.000559682
0.000440803
0.000357406
0.000264516
8.65716e-05
1.63454e-05
0.00179089
0.00157546
0.00158726
0.00171712
0.00172104
0.00145196
0.00119691
0.00100546
0.000907545
0.000908479
0.000982035
0.00108991
0.00118424
0.00126945
0.00137827
0.00142775
0.00144929
0.00144397
0.00141757
0.0013803
0.00134079
0.00130232
0.00126017
0.00120301
0.00111894
0.00100332
0.000860802
0.00070502
0.000557369
0.000439846
0.000359253
0.000275527
0.000100854
1.58714e-05
0.0017712
0.00156655
0.00157557
0.00169476
0.00174012
0.00147641
0.00122508
0.00103555
0.000936064
0.000930171
0.000993322
0.00108995
0.00115896
0.00125796
0.00135285
0.00139731
0.00141599
0.00141055
0.00138752
0.00135624
0.0013243
0.00129336
0.00125684
0.00120209
0.0011171
0.000998288
0.000852633
0.000695783
0.000549423
0.000434728
0.000357967
0.000281813
0.000109244
1.49439e-05
0.00174919
0.00155543
0.00156213
0.00167063
0.00176247
0.00150628
0.00126004
0.00107243
0.000969899
0.000954693
0.00100452
0.00107391
0.00114158
0.00125342
0.00132047
0.00135984
0.00137621
0.00137171
0.0013535
0.00132995
0.00130707
0.00128433
0.00125294
0.00119903
0.00111102
0.000987229
0.000837485
0.000679713
0.000535824
0.00042552
0.000353744
0.000285188
0.000116453
1.36979e-05
0.00172311
0.0015412
0.00154682
0.0016453
0.00174034
0.0015409
0.00130162
0.00111636
0.00100989
0.000983618
0.00101788
0.00105588
0.0011313
0.00123043
0.00128435
0.00131859
0.00133322
0.00133087
0.00131898
0.00130478
0.00129203
0.0012774
0.00124963
0.00119397
0.00110014
0.000969321
0.000814698
0.000656499
0.000516565
0.000412343
0.000346626
0.000285185
0.000122348
1.22337e-05
0.0016915
0.00152304
0.00152918
0.00161904
0.00170409
0.00157989
0.00134968
0.00116763
0.00105696
0.00101864
0.00101858
0.00104651
0.00112926
0.00120345
0.00124854
0.00127771
0.00129124
0.00129237
0.00128837
0.00128478
0.00128247
0.0012746
0.00124751
0.00118632
0.00108323
0.000943298
0.000783443
0.000625882
0.000491763
0.000395407
0.00033669
0.000281271
0.000126549
1.06296e-05
0.00165295
0.00150021
0.00150874
0.00159193
0.00166854
0.00162288
0.00140387
0.00122631
0.00111174
0.00104187
0.00101156
0.00104648
0.00113688
0.00118198
0.00121804
0.00124239
0.00125555
0.00126163
0.00126687
0.0012744
0.00128144
0.00127729
0.00124618
0.00117442
0.0010582
0.000907469
0.000742853
0.000587804
0.000461759
0.000375082
0.00032406
0.000248928
0.000128645
8.97649e-06
0.00160598
0.00147211
0.00148491
0.00156328
0.00163407
0.00163896
0.00146298
0.00129165
0.00112981
0.0010372
0.0010165
0.00105805
0.00113945
0.00117131
0.00119864
0.00121873
0.00123248
0.00124492
0.00126009
0.00127785
0.00129109
0.00128531
0.00124356
0.00115517
0.00102211
0.000859889
0.00069227
0.000542571
0.00042722
0.000351902
0.000308862
0.000222632
0.000128322
7.35945e-06
0.00154971
0.00143797
0.00145682
0.00153247
0.00160116
0.00157211
0.00143165
0.00126454
0.00112687
0.00104971
0.00103736
0.00108442
0.00115664
0.00117692
0.00119651
0.00121341
0.00122903
0.00124872
0.00127312
0.00129793
0.00131141
0.00129586
0.00123508
0.00112375
0.0009713
0.000798779
0.000631616
0.000491038
0.000389244
0.000326585
0.00028192
0.000202198
0.000125115
5.79714e-06
0.00148333
0.00139736
0.00142377
0.00149915
0.00154869
0.00150277
0.00139064
0.00125568
0.00114413
0.00108219
0.00107766
0.00113021
0.00119311
0.00120388
0.00121747
0.0012327
0.00125196
0.00127834
0.00130883
0.00133433
0.0013386
0.00130233
0.00121313
0.00107387
0.000902083
0.000723231
0.00056186
0.000434854
0.000348792
0.000299985
0.00024693
0.000187214
0.000118556
4.36779e-06
0.00140702
0.00134927
0.00138541
0.0014554
0.00148477
0.00145581
0.00137128
0.00126719
0.00118102
0.00113557
0.00114092
0.00120071
0.001252
0.00125613
0.00126602
0.0012812
0.00130467
0.00133517
0.00136535
0.00138125
0.00136324
0.00129343
0.00116746
0.000998759
0.000812052
0.000634128
0.000485399
0.000376463
0.000308131
0.000273225
0.00022175
0.000177545
0.000108308
3.12816e-06
0.00132178
0.00129316
0.00133994
0.00139525
0.00143446
0.00142484
0.00136797
0.00129441
0.0012348
0.00120895
0.00122827
0.00129916
0.00133497
0.00133572
0.00134424
0.00136032
0.00138607
0.00141438
0.00143335
0.00142498
0.0013688
0.00125333
0.00108693
0.000893632
0.000701768
0.000534921
0.000406121
0.000318845
0.000268987
0.00024676
0.00020409
0.000172612
9.4048e-05
2.6541e-06
0.00122856
0.00122856
0.0012768
0.00134066
0.00139128
0.00140228
0.00137427
0.00133205
0.001301
0.00129831
0.00133624
0.00142302
0.00144136
0.00144143
0.00144974
0.00146566
0.00148705
0.00150143
0.00149302
0.00144192
0.00133178
0.00116446
0.000963315
0.000758679
0.000576334
0.000431697
0.000328879
0.00026486
0.000232501
0.000220628
0.000190659
0.000171435
7.45568e-05
2.39189e-06
0.00112841
0.00115022
0.00121327
0.00128554
0.0013489
0.00138249
0.00138489
0.00137504
0.00137428
0.00139731
0.00145652
0.00156282
0.00156601
0.00156577
0.00157184
0.00158214
0.00158558
0.00156808
0.00151154
0.00139885
0.00122614
0.0010143
0.000796958
0.000601919
0.000445572
0.000332244
0.000258225
0.00021648
0.00019888
0.0001939
0.000178008
0.000151696
4.76349e-05
2.03452e-06
0.00102207
0.00106597
0.00114478
0.0012256
0.00130397
0.0013625
0.00139674
0.00141993
0.00144973
0.00149811
0.00157821
0.0017027
0.00169443
0.0016897
0.00168591
0.00167503
0.00164144
0.00156921
0.00144315
0.00125896
0.00103423
0.000804864
0.000601535
0.000439656
0.00032212
0.000243865
0.000197044
0.000173963
0.000166812
0.000164428
0.000148709
0.000105082
2.15926e-05
1.59303e-06
0.000909422
0.000974871
0.00106949
0.00116006
0.0012567
0.00134253
0.00140872
0.00146254
0.00151858
0.00159196
0.00170334
0.00181043
0.00179337
0.00177364
0.00174466
0.00168894
0.00159216
0.00144234
0.001239
0.00100167
0.000765808
0.000562894
0.000405389
0.000292381
0.00021707
0.000170834
0.000145806
0.000135667
0.0001336
0.00012905
0.000101142
3.85927e-05
8.01492e-06
1.17491e-06
0.000799228
0.000882531
0.000990452
0.00109225
0.00120868
0.00131969
0.00141229
0.00149403
0.00158328
0.00169642
0.00184368
0.00183412
0.00179324
0.00174159
0.00165954
0.00153221
0.00135352
0.00113067
0.000888744
0.00066178
0.000475403
0.00033656
0.000239561
0.000175529
0.000135791
0.000113168
0.000102217
9.85647e-05
9.6075e-05
8.41476e-05
4.09172e-05
1.25413e-05
3.23644e-06
7.07431e-07
0.000668776
0.000785336
0.000906652
0.00101819
0.00115789
0.00130152
0.0014301
0.0015475
0.00167157
0.00177661
0.00171431
0.00164533
0.00156711
0.00146295
0.00130699
0.00110938
0.000888187
0.000671336
0.000484354
0.000339731
0.000236646
0.00016698
0.000121572
9.32009e-05
7.64721e-05
6.74458e-05
6.28903e-05
5.99803e-05
5.3163e-05
2.97216e-05
1.12226e-05
4.6846e-06
1.35513e-06
3.09258e-07
0.000579435
0.000709188
0.000834979
0.000959281
0.00111284
0.00127012
0.00140444
0.00143835
0.00134811
0.00125875
0.00116949
0.00107685
0.000974252
0.000825604
0.00066307