/*--------------------------------*- C++ -*----------------------------------*\
| =========                 |                                                 |
| \\      /  F ield         | OpenFOAM: The Open Source CFD Toolbox           |
|  \\    /   O peration     | Version:  v2012                                 |
|   \\  /    A nd           | Website:  www.openfoam.com                      |
|    \\/     M anipulation  |                                                 |
\*---------------------------------------------------------------------------*/
FoamFile
{
    version     2.0;
    format      ascii;
    class       volScalarField;
    location    "567";
    object      omega;
}
// * * * * * * * * * * * * * * * * * * * * * * * * * * * * * * * * * * * * * //

dimensions      [0 0 -1 0 0 0 0];


internalField   nonuniform List<scalar> 
6018
(
239.038
239.801
240.54
241.258
241.964
242.678
243.426
244.232
245.128
246.147
247.336
248.752
250.474
252.61
255.313
258.807
263.425
269.67
278.343
290.789
74.6449
72.2547
70.3356
68.8293
67.7421
67.1022
66.8708
66.9714
67.3412
67.9287
68.6903
69.5807
70.5476
71.5351
72.4546
73.1634
73.4388
72.9171
70.8633
65.9464
37.2167
36.2325
35.626
35.3423
35.3363
35.5645
35.987
36.5715
37.2947
38.1409
39.1
40.1656
41.3317
42.5959
43.9671
45.4615
47.1093
48.9748
51.1843
54.0038
25.8365
25.7924
25.9495
26.2747
26.7424
27.3342
28.038
28.8481
29.7639
30.7896
31.934
33.2114
34.642
36.2522
38.0791
40.1743
42.6074
45.4732
48.899
53.0542
22.1796
22.5335
22.9983
23.5604
24.2114
24.948
25.7712
26.6854
27.6987
28.8227
30.0726
31.4686
33.0358
34.8063
36.8207
39.131
41.8037
44.9239
48.6023
52.9828
21.4243
21.9634
22.5687
23.2373
23.9692
24.7675
25.6379
26.5883
27.6293
28.7753
30.0412
31.4483
33.023
34.7984
36.8161
39.1286
41.8026
44.9235
48.6021
52.9828
22.724
23.4175
24.1466
24.9138
25.7236
26.5814
27.4939
28.4694
29.5033
30.6109
31.8132
33.131
34.5891
36.2181
38.0581
40.1622
42.6011
45.4704
48.898
53.054
28.0838
29.1018
30.1216
31.1595
32.2282
33.3344
34.4261
35.4799
36.5387
37.623
38.7478
39.9253
41.1672
42.4854
43.896
45.4177
47.0844
48.9624
51.1793
54.0028
51.2383
53.1827
55.0633
57.0141
59.1707
61.0738
62.6552
64.05
65.3346
66.5603
67.7592
68.9456
70.1181
71.2487
72.2659
73.0424
73.3665
72.8782
70.8443
65.9407
242.522
242.435
242.478
242.668
242.986
243.417
243.957
244.613
245.399
246.34
247.472
248.847
250.539
252.653
255.341
258.824
263.434
269.674
278.344
290.789
234.236
234.246
234.246
234.236
234.22
234.206
234.198
234.195
234.194
234.196
234.203
234.217
234.233
234.244
234.247
234.246
234.245
234.247
234.252
234.257
234.259
234.263
234.267
234.268
234.266
234.28
234.367
234.537
234.838
235.298
235.914
236.647
237.439
238.244
37.1017
38.4647
42.0064
47.2289
50.6565
51.2299
49.4121
46.0859
42.1628
40.135
38.4285
37.7653
37.8978
38.6815
39.8271
41.5506
42.3132
41.9979
42.3733
43.2597
46.1324
53.0253
61.5534
69.7041
77.1641
82.9992
86.9649
89.245
89.9979
89.3443
87.4937
84.6609
81.1419
77.593
16.6104
16.1548
16.3852
18.6172
21.4026
23.2749
23.4525
21.8763
19.0104
16.4948
14.771
14.0836
14.184
14.8308
15.9419
18.419
21.3668
25.0601
31.2503
37.931
44.3909
49.8119
53.6506
55.8985
56.829
56.5766
55.3621
53.4268
50.9873
48.2248
45.4479
42.8474
40.5354
38.6414
14.77
13.4082
12.4494
12.4921
13.3918
14.5231
15.075
14.5552
13.0439
11.4529
10.6483
10.8023
11.5995
13.2438
15.9841
20.7806
26.2302
31.4696
36.1239
39.6622
41.9133
42.9173
42.8366
41.9103
40.3859
38.4751
36.3711
34.2346
32.2102
30.3867
28.8307
27.5967
26.698
26.1244
14.4182
12.8293
11.6544
10.959
10.8748
11.2465
11.5968
11.4523
10.7809
10.3869
11.1882
12.8724
15.1146
18.2115
22.0705
26.5489
30.5666
33.5416
35.3023
35.8771
35.504
34.4618
32.9926
31.293
29.5209
27.804
26.236
24.8812
23.7767
22.9336
22.349
22.0089
21.8885
21.955
13.5409
11.8782
10.7457
10.0233
9.71905
9.80374
10.0517
10.2006
10.4793
11.8895
14.0248
16.636
19.5683
22.9515
26.3461
29.1757
30.9615
31.6148
31.316
30.3564
29.0208
27.5199
25.9976
24.5548
23.2654
22.1794
21.3238
20.7053
20.3147
20.1322
20.1322
20.2858
20.5676
20.9539
12.1535
10.5875
9.60739
9.06992
8.87385
9.00012
9.41441
10.247
12.0367
14.5728
17.4103
20.2914
23.1667
25.7357
27.6296
28.5979
28.6203
27.9055
26.752
25.415
24.0659
22.8088
21.7087
20.8082
20.1317
19.6862
19.4637
19.4446
19.6021
19.906
20.3285
20.8423
21.422
22.0538
10.63
9.28329
8.52964
8.22849
8.26092
8.69458
9.78765
11.8157
14.6499
17.5149
20.3757
22.9152
24.8961
26.152
26.5891
26.2591
25.3791
24.2214
23.0078
21.8777
20.9102
20.1513
19.6279
19.353
19.3264
19.5379
19.9706
20.6034
21.4152
22.3885
23.4943
24.6811
25.865
27.0069
9.30884
8.2408
7.77282
7.75423
8.18189
9.36289
11.4753
14.1927
17.1362
19.9468
22.3235
23.9801
24.8489
24.959
24.4412
23.5227
22.4498
21.4138
20.5334
19.8762
19.484
19.3851
19.5997
20.1437
21.0312
22.2806
23.9149
25.9661
28.4765
31.4901
35.0404
39.1422
43.6728
47.7663
8.4106
7.68328
7.55004
7.9893
9.10582
11.0127
13.5776
16.4149
19.1745
21.4774
23.0242
23.7143
23.6553
23.0541
22.1611
21.2096
20.3706
19.7513
19.42
19.4287
19.8274
20.6719
22.0326
24.0012
26.6994
30.2922
35.0082
41.1581
49.1749
59.6978
73.7305
93.1527
121.933
167.927
234.192
234.194
234.196
234.198
234.206
234.221
172.061
53.2344
40.568
37.8701
36.7785
36.5468
172.062
34.2194
21.0876
19.3463
18.3385
17.413
172.064
35.568
23.985
20.7937
18.4555
16.4897
172.065
43.088
29.3296
23.5022
19.5387
16.6797
172.07
50.9104
33.3995
24.9698
19.6045
16.0719
172.108
57.021
35.3544
24.8125
18.5737
14.7038
172.216
60.5251
35.0671
23.1749
16.6746
12.9398
172.422
60.854
32.7093
20.4955
14.4107
11.1828
172.691
58.1211
28.8843
17.4584
12.3298
9.80445
8.00101
7.71026
8.07162
9.06426
10.7308
13.0104
15.6504
18.2874
20.5261
22.0275
22.6585
22.528
21.9003
21.0616
20.2441
19.6041
19.2374
19.2079
19.5682
20.3691
21.663
23.5042
25.9457
29.0304
32.7337
37.0326
41.8457
47.0559
52.5484
58.3034
64.6719
73.0652
89.889
147.835
8.17296
8.39174
9.19353
10.5886
12.5459
14.8982
17.3485
19.5064
21.0115
21.6804
21.5861
20.9962
20.2252
19.5196
19.032
18.8486
19.0234
19.5977
20.6063
22.0744
24.0089
26.381
29.1016
31.998
34.8096
37.2122
38.8089
39.1761
37.8738
34.242
28.5634
23.1622
30.3484
146.68
8.91264
9.46175
10.5748
12.2069
14.2435
16.4515
18.4903
19.9997
20.7515
20.7583
20.2547
19.5595
18.9382
18.5522
18.4832
18.7749
19.4549
20.5379
22.0192
23.853
25.9286
28.0515
29.9425
31.2633
31.6684
30.836
28.5294
24.5796
19.7845
16.0293
12.8479
11.8801
23.5093
146.603
9.89293
10.6907
11.9984
13.7183
15.6596
17.5367
19.0214
19.8585
19.9955
19.6093
18.9998
18.4437
18.1186
18.1119
18.4605
19.1805
20.2686
21.6857
23.3349
25.0389
26.5427
27.541
27.7355
26.8982
24.9148
21.8047
18.0138
14.8454
12.1106
10.0496
8.61591
9.33359
21.8972
146.584
10.9766
11.9391
13.336
15.0021
16.6893
18.1086
19.0052
19.273
19.0191
18.5037
18.0036
17.7135
17.7338
18.1032
18.8282
19.8865
21.2079
22.6507
23.9971
24.9766
25.3206
24.827
23.4135
21.1282
18.0634
15.0275
12.5898
10.7292
9.17507
7.94347
7.28941
8.53394
21.1731
146.574
12.0643
13.1092
14.4859
15.9696
17.2901
18.2076
18.5845
18.4628
18.0477
17.6011
17.3323
17.3579
17.7244
18.434
19.4462
20.6635
21.9128
22.9593
23.5507
23.4797
22.6392
21.0381
18.7603
15.9245
13.5376
11.6302
10.0791
8.82068
7.79864
7.02633
6.73794
8.18055
20.7832
146.557
13.0987
14.1441
15.3917
16.5834
17.4832
17.9374
17.933
17.6178
17.2255
16.9712
16.9894
17.3379
18.0179
18.9749
20.0892
21.171
21.985
22.3114
22.0046
21.0253
19.4152
17.207
14.7031
12.7187
11.065
9.71017
8.60644
7.70493
6.98163
6.46975
6.37981
7.95024
20.6021
146.538
14.0425
14.996
16.0133
16.8491
17.3414
17.4312
17.2078
16.8705
16.6293
16.6292
16.948
17.5865
18.4815
19.4975
20.4363
21.074
21.2237
20.7905
19.7795
18.2323
16.0066
13.9225
12.1233
10.6283
9.38998
8.37573
7.55927
6.89134
6.35742
6.00673
6.05061
7.74647
20.6256
146.535
14.8412
15.6154
16.337
16.8125
16.9651
16.8212
16.5344
16.3032
16.2812
16.5547
17.1409
17.9669
18.889
19.7054
20.2057
20.2327
19.7272
18.7227
17.2634
15.065
13.1719
11.5527
10.1862
9.04621
8.12823
7.37268
6.74448
6.21802
5.799
5.5486
5.6868
7.55987
20.8844
146.532
15.4498
15.982
16.3893
16.5518
16.4666
16.2225
15.9926
15.9383
16.1616
16.6812
17.4321
18.2644
18.9754
19.3659
19.3013
18.7459
17.7483
16.3464
14.2838
12.4824
10.9603
9.72233
8.69826
7.85945
7.17362
6.58182
6.05989
5.60394
5.24322
5.05372
5.3103
7.46691
21.4431
146.524
15.8477
16.1102
16.2294
16.1562
15.9391
15.7013
15.6035
15.7668
16.2131
16.8811
17.6279
18.25
18.5538
18.4188
17.8244
16.8298
15.492
13.6561
11.884
10.4811
9.31751
8.45402
7.7109
7.05399
6.4616
5.91212
5.41106
4.98269
4.66093
4.54933
5.00721
7.56827
22.4281
146.509
16.0393
16.0383
15.9224
15.6981
15.4432
15.2941
15.3782
15.7403
16.3244
16.9884
17.5374
17.7772
17.5912
16.9665
15.9695
14.6836
13.0501
11.4678
10.1416
9.1986
8.46458
7.82329
7.19806
6.56139
5.92244
5.31457
4.78436
4.3721
4.10622
4.16863
4.91649
8.1085
24.7066
146.494
16.0475
15.8154
15.5334
15.2409
15.0286
15.0203
15.2739
15.7692
16.358
16.8475
17.0465
16.8318
16.1889
15.1889
13.9311
12.4641
11.0808
9.98934
9.21642
8.68026
8.22413
7.74475
7.16013
6.47423
5.71605
4.98237
4.3806
3.96444
3.78799
4.10935
5.3175
9.95098
29.3601
146.48
15.9068
15.4935
15.1131
14.8177
14.6974
14.837
15.2248
15.7419
16.1883
16.3682
16.1505
15.5097
14.5186
13.2983
11.9773
10.7112
9.80075
9.21831
8.85779
8.60235
8.35969
8.0527
7.59841
6.93716
6.08814
5.19675
4.47772
4.06856
4.04346
4.71267
6.68327
12.6583
33.0374
146.462
15.6539
15.1147
14.6974
14.4524
14.4518
14.7104
15.145
15.559
15.7431
15.5485
14.9343
13.9661
12.7781
11.5292
10.3901
9.54993
9.0509
8.79981
8.69186
8.65597
8.63405
8.55292
8.31206
7.80549
6.99129
5.99368
5.1266
4.70595
4.87151
5.8816
8.4641
15.1075
35.0755
146.445
15.3243
14.714
14.3077
14.1401
14.2481
14.58
14.9582
15.163
15.0196
14.4591
13.5326
12.3761
11.1626
10.0607
9.2095
8.7071
8.47238
8.42175
8.48759
8.63453
8.82527
8.99656
9.04549
8.83426
8.23803
7.26905
6.22901
5.6548
5.91678
7.12593
9.95612
16.5387
35.2726
146.432
14.9508
14.3148
13.9495
13.874
14.0633
14.3888
14.6175
14.5477
14.072
13.2114
12.0943
10.8944
9.77897
8.86682
8.25523
7.9768
7.90384
7.97153
8.15153
8.43168
8.79254
9.19037
9.54112
9.71
9.51967
8.83057
7.73635
6.78207
6.76316
7.93341
10.6591
16.6821
33.9205
146.424
14.5553
13.9284
13.6234
13.6292
13.859
14.0994
14.1135
13.751
12.9877
11.9263
10.7357
9.59651
8.60794
7.865
7.44174
7.29671
7.32029
7.45197
7.69455
8.04977
8.51471
9.06899
9.65991
10.1865
10.4808
10.318
9.53138
8.29957
7.48515
8.11653
10.4204
15.6408
31.5262
146.42
14.1557
13.5652
13.3332
13.3953
13.6063
13.6994
13.47
12.8399
11.868
10.7159
9.54132
8.48529
7.62027
7.03851
6.75539
6.6838
6.74924
6.90873
7.17386
7.5542
8.05867
8.68776
9.42094
10.1988
10.9063
11.3336
11.1922
10.2547
8.76939
8.06332
9.47272
13.7566
28.6546
146.419
13.7652
13.2232
13.0538
13.1526
13.2903
13.1983
12.729
11.8829
10.7879
9.61348
8.50565
7.53945
6.8039
6.36113
6.16541
6.12909
6.20728
6.37332
6.64103
7.01794
7.51378
8.15195
8.9374
9.84478
10.8161
11.7119
12.2649
12.0961
10.8745
8.94758
8.54614
11.646
26.2654
146.418
13.3921
12.9085
12.7919
12.8891
12.9118
12.6218
11.9422
10.947
9.80096
8.65807
7.61489
6.74463
6.13275
5.78833
5.63575
5.60796
5.681
5.83769
6.09218
6.45462
6.93812
7.55782
8.32316
9.26986
10.369
11.5536
12.6436
13.288
12.9795
11.2478
8.88772
10.5142
25.32
146.419
13.0369
12.6109
12.5401
12.6003
12.483
12.0034
11.1575
10.0761
8.92719
7.82953
6.85429
6.08315
5.57303
5.2879
5.15051
5.11542
5.17127
5.30743
5.53624
5.86873
6.31939
6.90662
7.65235
8.58216
9.72081
11.0499
12.4832
13.7744
14.4476
13.8339
11.3151
10.5422
25.0831
146.42
12.7038
12.3365
12.2947
12.289
12.0223
11.3753
10.4104
9.29065
8.16339
7.11388
6.21076
5.53231
5.09675
4.84375
4.70764
4.65896
4.69316
4.80428
5.00175
5.29719
5.70605
6.24863
6.95085
7.8447
8.96711
10.3488
11.9715
13.7111
15.2135
15.8122
14.5998
12.0756
25.4396
146.421
12.3961
12.0865
12.0538
11.9621
11.5492
10.7644
9.72303
8.59545
7.49859
6.49903
5.66913
5.06954
4.68478
4.44777
4.30679
4.24262
4.25419
4.34193
4.50635
4.76063
5.12061
5.60772
6.25069
7.08705
8.16377
9.53446
11.2396
13.2574
15.3932
17.1227
17.5206
15.711
25.8972
146.422
12.1162
11.8602
11.8172
11.6282
11.0811
10.1891
9.10424
7.98547
6.92182
5.97385
5.21351
4.67687
4.32617
4.09763
3.95139
3.87429
3.86631
3.93309
4.06646
4.28018
4.58926
5.01471
5.58613
6.34461
7.34551
8.65936
10.366
12.5254
15.095
17.7589
19.7173
19.6374
26.5701
146.423
11.8624
11.655
11.5865
11.2966
10.6316
9.66013
8.55456
7.45258
6.42326
5.52732
4.82936
4.34158
4.01486
3.79258
3.64378
3.55867
3.53704
3.58296
3.6894
3.86691
4.12854
4.49323
4.9889
5.6566
6.556
7.77044
9.40944
11.5973
14.422
17.7943
21.1838
23.3362
29.2348
146.423
11.6385
11.4701
11.3641
10.9751
10.21
9.18243
8.07066
6.98853
5.99419
5.14878
4.50459
4.05474
3.74626
3.53004
3.38112
3.29129
3.25961
3.28885
3.37354
3.52122
3.74259
4.05361
4.47845
5.05437
5.83935
6.92172
8.43132
10.5446
13.4617
17.311
21.914
26.4194
33.5798
146.423
11.4415
11.3038
11.1522
10.6697
9.82186
8.75676
7.64689
6.58591
5.62667
4.82852
4.22959
3.80963
3.51604
3.30606
3.1586
3.0662
3.02733
3.04381
3.11162
3.23603
3.42562
3.69327
4.05862
4.55273
5.22643
6.16348
7.49955
9.44636
12.3001
16.3912
21.9181
28.6037
38.3358
146.423
11.2702
11.1544
10.9529
10.3837
9.46994
8.38074
7.27741
6.23818
5.31339
4.55804
3.99676
3.60086
3.31991
3.11608
2.97081
2.87702
2.8328
2.83946
2.89428
3.00103
3.16668
3.40154
3.72103
4.14953
4.72796
5.52795
6.67495
8.39006
11.0377
15.1323
21.2491
29.7966
42.8301
146.422
11.121
11.0206
10.7675
10.1201
9.15468
8.05101
6.95691
5.93956
5.04773
4.33021
3.80012
3.42387
3.15376
2.95564
2.81261
2.71783
2.66926
2.66806
2.7127
2.80603
2.95398
3.16502
3.45131
3.83154
4.33676
5.02324
5.99481
7.45413
9.78898
13.6599
20.0015
29.9903
46.4678
146.431
10.9914
10.9019
10.5968
9.88035
8.87501
7.76392
6.68065
5.6849
4.82384
4.13915
3.63482
3.27477
3.01391
2.82079
2.67964
2.58384
2.53138
2.52353
2.55988
2.64278
2.7775
2.97139
3.23448
3.58139
4.03525
4.63786
5.46738
6.6876
8.65941
12.1224
18.339
29.263
49.0445
146.459
10.8791
10.7969
10.4412
9.6648
8.62919
7.51603
6.44445
5.46963
4.63667
3.98007
3.49695
3.15027
2.89719
2.70825
2.5685
2.47148
2.41533
2.40159
2.43096
2.50545
2.63
2.81131
3.05822
3.38288
3.80324
4.35002
5.07853
6.10553
7.72443
10.6602
16.4222
27.717
50.4102
146.52
10.7816
10.7039
10.3011
9.47295
8.41553
7.30439
6.24465
5.28971
4.48196
3.8491
3.38334
3.04766
2.80102
2.61548
2.47665
2.37826
2.31858
2.29954
2.32291
2.39047
2.50695
2.67872
2.91402
3.2238
3.62316
4.13597
4.80156
5.69412
7.01862
9.3971
14.4211
25.4795
50.4528
146.627
10.696
10.6218
10.1763
9.30433
8.23198
7.1257
6.07801
5.14166
4.35611
3.74313
3.2915
2.96472
2.72332
2.5405
2.40229
2.30249
2.23955
2.21578
2.23402
2.29588
2.40589
2.57022
2.79687
3.09641
3.48272
3.97618
4.60753
5.42069
6.53508
8.41552
12.5561
22.8282
49.1768
146.779
10.6203
10.5498
10.0667
9.15812
8.07628
6.97713
5.94167
5.02251
4.25624
3.65969
3.21939
2.89969
2.66249
2.48186
2.34412
2.24307
2.17726
2.14942
2.16345
2.2208
2.32574
2.48428
2.70437
2.99665
3.37483
3.85777
4.47325
5.24877
6.2373
7.73953
11.0018
20.0138
46.6635
146.952
10.5528
10.4873
9.97219
9.03334
7.94631
6.85618
5.83318
4.92976
4.18004
3.59687
3.16545
2.85121
2.61729
2.43845
2.30117
2.1992
2.13113
2.10008
2.11097
2.16505
2.26629
2.42051
2.63571
2.92293
3.29631
3.77407
4.38403
5.1482
6.07768
7.33379
9.84704
17.3077
43.2018
147.121
10.4927
10.4336
9.89228
8.929
7.8401
6.76071
5.75044
4.86143
4.12574
3.55323
3.12848
2.81824
2.58679
2.40945
2.27276
2.17035
2.10086
2.06772
2.07677
2.12892
2.22782
2.37913
2.59103
2.87512
3.24644
3.72294
4.33321
5.0999
6.01346
7.13742
9.10265
14.9729
39.1515
147.264
10.439
10.3883
9.82666
8.84407
7.75587
6.6888
5.69167
4.81592
4.092
3.52774
3.10766
2.80006
2.57031
2.39427
2.25845
2.15628
2.08657
2.0529
2.06161
2.11318
2.21102
2.36083
2.57103
2.85396
3.22588
3.70481
4.31976
5.09571
6.01608
7.08808
8.71402
13.1939
34.8477
147.367
10.3909
10.351
9.7749
8.77754
7.69202
6.63875
5.65537
4.79199
4.07767
3.51955
3.10249
2.79638
2.56736
2.39248
2.25821
2.15755
2.08942
2.05738
2.06705
2.11904
2.21692
2.36657
2.57681
2.8608
3.23619
3.72162
4.34578
5.13491
6.07203
7.13856
8.59282
12.0462
30.6908
147.424
10.3478
10.3212
9.73652
8.72842
7.64696
6.60876
5.6399
4.78834
4.07937
3.52662
3.11259
2.80795
2.58046
2.40702
2.27433
2.17585
2.11018
2.08077
2.09201
2.1453
2.24455
2.39593
2.60881
2.89732
3.28065
3.77882
4.41762
5.22101
6.17867
7.26313
8.65892
11.5054
27.1385
147.434
10.3092
10.2985
9.71077
8.69545
7.61802
6.5949
5.64051
4.80111
4.10238
3.55489
3.14258
2.83814
2.61076
2.43794
2.30673
2.2105
2.14739
2.1207
2.1342
2.18978
2.29171
2.44649
2.66414
2.96007
3.35513
3.87118
4.53256
5.36
6.34356
7.45645
8.86241
11.5181
24.894
147.405
10.2747
10.2804
9.69416
8.67603
7.60456
6.59806
5.66062
4.83512
4.14701
3.60449
3.19298
2.88748
2.65896
2.48605
2.35586
2.26155
2.20092
2.17724
2.1937
2.25285
2.35901
2.51905
2.74398
3.05077
3.46228
4.00224
4.69353
5.55216
6.56564
7.70943
9.13693
11.711
24.2276
147.347
10.2446
10.2672
9.68662
8.67012
7.60569
6.617
5.69909
4.88966
4.21316
3.67585
3.26477
2.95707
2.72636
2.55263
2.42294
2.3301
2.27184
2.25173
2.27221
2.33622
2.44827
2.61569
2.85084
3.17284
3.60679
4.17822
4.90814
5.80601
6.85367
8.02972
9.48237
11.999
23.7756
147.269
10.2198
10.26
9.68827
8.678
7.62098
6.65001
5.75476
4.96409
4.30085
3.76965
3.35903
3.04865
2.81514
2.63979
2.50999
2.41832
2.36244
2.34663
2.37233
2.44249
2.56207
2.73923
2.9883
3.33112
3.79529
4.4078
5.1869
6.1331
7.21901
8.42733
9.90353
12.3511
23.4745
147.178
10.2017
10.2601
9.69952
8.69948
7.65038
6.69645
5.82672
5.05786
4.41009
3.88662
3.47707
3.16419
2.92786
2.75051
2.62011
2.52943
2.47614
2.46545
2.49747
2.57502
2.7036
2.89332
3.1612
3.53236
4.03705
4.70298
5.54397
6.54825
7.67544
8.91319
10.4058
12.7631
23.3087
147.078
10.1924
10.2695
9.72114
8.73434
7.69415
6.75633
5.91419
5.17023
4.54065
4.02717
3.62031
3.30599
3.06737
2.88822
2.75719
2.66759
2.61728
2.61258
2.65175
2.73761
2.87686
3.0827
3.37632
3.78632
4.34537
5.08055
5.99838
7.07003
8.23909
9.49898
10.993
13.2363
23.2512
146.975
10.1948
10.2909
9.7545
8.78261
7.75346
6.83092
6.01623
5.30038
4.69215
4.19123
3.78996
3.47661
3.23688
3.05666
2.92551
2.83743
2.79093
2.79287
2.83953
2.93444
3.08674
3.31423
3.64365
4.10748
4.73959
5.56412
6.5754
7.72123
8.92799
10.1953
11.6643
13.7504
23.2605
146.874
10.2131
10.3281
9.80177
8.84518
7.8309
6.92439
6.1345
5.44739
4.86334
4.37915
3.9875
3.67829
3.43964
3.25964
3.12926
3.04349
3.0035
3.01116
3.06494
3.17011
3.33994
3.59854
3.97908
4.518
5.24836
6.18677
7.30787
8.52897
9.76209
11.01
12.4099
14.2696
23.3053
146.777
10.2522
10.3859
9.86635
8.92491
7.92872
7.03992
6.27303
5.61432
5.05666
4.59285
4.21463
3.91306
3.67817
3.50025
3.37183
3.28902
3.25619
3.26958
3.3315
3.45076
3.64713
3.95316
4.40878
5.05269
5.91426
6.99409
8.23649
9.52359
10.7526
11.9418
13.206
14.7419
23.3534
146.689
10.3195
10.4711
9.95361
9.02744
8.05087
7.18018
6.43696
5.8066
5.27632
4.83527
4.47367
4.18307
3.95472
3.78099
3.6559
3.57667
3.5503
3.57152
3.64578
3.78803
4.02788
4.4085
4.97551
5.76647
6.79965
8.04686
9.40938
10.737
11.9278
12.9869
13.9995
15.0929
23.3996
146.612
10.4267
10.5933
10.0735
9.16463
8.20468
7.35287
6.63388
6.0317
5.52912
5.11206
4.7692
4.49221
4.27301
4.10569
3.98568
3.91155
3.89386
3.92736
4.02299
4.2057
4.51921
5.01834
5.75025
6.74422
7.99391
9.42211
10.8802
12.2023
13.29
14.0984
14.692
15.2283
23.451
146.582
10.5907
10.769
10.2545
9.35089
8.40388
7.57094
6.87638
6.3019
5.8266
5.43375
5.11078
4.84933
4.64173
4.48326
4.3708
4.30617
4.30255
4.35793
4.49355
4.75043
5.19092
5.87822
6.85133
8.11714
9.61961
11.2122
12.706
13.945
14.8073
15.1716
15.1276
15.0521
23.5612
146.566
10.8395
11.0425
10.5287
9.60919
8.66881
7.85346
7.18285
6.63524
6.18641
5.81771
5.5156
5.27143
5.07773
4.93067
4.82933
4.78786
4.80594
4.90331
5.11875
5.51614
6.17667
7.15907
8.47606
10.0827
11.8365
13.521
14.9433
15.9558
16.3696
15.9923
15.0807
14.5563
24.2844
146.544
11.2377
11.4657
10.9353
9.96993
9.02743
8.22717
7.57941
7.05789
6.63541
6.29182
6.01259
5.78722
5.60929
5.47619
5.39081
5.38021
5.45233
5.64851
6.03565
6.70508
7.74467
9.17916
10.9546
12.9215
14.8355
16.4536
17.6086
18.1242
17.7038
16.1933
14.3312
14.1299
28.8961
146.516
11.8808
12.1101
11.5331
10.481
9.52653
8.73827
8.11291
7.6188
7.22551
6.91039
6.65668
6.45129
6.29207
6.1799
6.13363
6.19714
6.40496
6.83434
7.58928
8.77728
10.4441
12.508
14.7821
16.988
18.825
20.0799
20.5959
20.1107
18.3016
15.3017
12.9919
15.9692
35.6556
146.49
12.9221
13.1045
12.4403
11.2451
10.2688
9.49216
8.89471
8.43606
8.08003
7.80059
7.57673
7.40157
7.27729
7.21767
7.3001
7.57608
8.1422
9.12251
10.6403
12.7437
15.3117
18.0599
20.6455
22.7112
23.9867
24.3004
23.4749
21.2078
17.4325
13.1104
12.357
18.8717
39.3961
146.461
14.8257
14.7804
13.96
12.5495
11.547
10.7946
10.2543
9.86641
9.5789
9.36743
9.2118
9.1174
9.09704
9.24382
9.7395
10.6695
12.1812
14.3945
17.3114
20.7269
24.2043
27.2533
29.4912
30.5801
30.3033
28.5511
25.2764
20.2942
14.4741
11.4825
13.2588
20.0114
39.4366
146.437
18.4971
17.9913
17.0997
15.5758
14.6849
14.1053
13.7864
13.6297
13.5527
13.5408
13.6021
13.7764
14.1606
15.3318
17.2385
19.9848
23.6272
28.0149
32.7164
37.092
40.468
42.4191
42.7462
40.9822
37.0519
31.2243
24.4255
17.684
15
14.5549
16.1085
21.1605
37.9393
146.423
36.1503
30.6675
31.0486
30.9592
30.8874
31.0031
31.3595
31.8825
32.5131
33.1986
33.9585
35.6516
38.9907
43.1335
48.1092
53.9171
60.0213
65.6162
70.0069
72.7209
73.1464
70.564
65.0757
56.6556
46.8738
38.9122
37.0012
36.2974
36.0402
35.9562
35.7669
37.0269
46.8462
146.419
218.537
214.837
212.287
210.931
210.71
210.704
210.685
210.695
210.722
210.743
210.745
210.718
210.649
210.52
210.314
210.014
209.605
209.097
208.544
208.037
207.687
207.519
207.466
207.466
207.466
207.463
207.461
207.458
207.457
207.456
207.455
207.453
207.451
176.934
172.961
53.2298
24.6071
14.7634
10.7922
8.95616
173.205
47.1465
20.6284
12.7771
9.91541
8.6694
173.408
41.3312
17.6987
11.7047
9.67922
8.94414
173.572
36.327
15.8709
11.3674
9.99954
9.61323
173.71
32.6318
15.1504
11.6101
10.6094
10.5231
173.841
30.7409
15.2021
12.0996
11.3626
11.4959
173.969
30.5055
15.5095
12.7148
12.1967
12.4574
174.072
30.4185
15.9161
13.406
13.1027
13.3977
174.152
30.4193
16.3851
14.1242
13.9548
14.2665
174.215
30.4814
16.9097
14.9147
14.7559
15.0147
174.26
30.5962
17.4379
15.6237
15.463
15.6057
174.273
30.7819
18.0073
16.267
16.0476
16.0205
174.24
31.0176
18.5045
16.8191
16.4888
16.2578
174.215
31.3168
18.9507
17.2644
16.7797
16.3307
174.201
31.546
19.3196
17.5909
16.9244
16.2613
174.376
31.7817
19.6076
17.7955
16.9354
16.0759
174.672
32.0101
19.8138
17.8831
16.8304
15.8025
174.984
32.2177
19.9383
17.8639
16.6297
15.4664
175.302
32.397
19.9831
17.751
16.3532
15.0888
175.626
32.5412
19.9557
17.5591
16.0198
14.691
175.934
32.6738
19.8683
17.3041
15.6474
14.2881
176.229
32.8032
19.7323
17.0015
15.2544
13.8931
176.514
32.9308
19.5579
16.6659
14.8569
13.514
176.788
33.0588
19.3555
16.3108
14.4645
13.154
177.052
33.1905
19.1356
15.9502
14.0854
12.8166
177.306
33.3287
18.9079
15.5959
13.7265
12.503
177.548
33.4816
18.6804
15.2534
13.3893
12.2154
177.777
33.6594
18.458
14.9251
13.0736
11.9547
177.993
33.8626
18.247
14.6138
12.7804
11.7178
178.192
34.0912
18.0513
14.3218
12.5089
11.5034
178.375
34.3448
17.8739
14.0504
12.2591
11.3124
178.538
34.6232
17.7166
13.7994
12.0303
11.1461
178.682
34.9253
17.5799
13.5633
11.8207
10.9975
178.804
35.2496
17.4631
13.3408
11.6286
10.8644
178.904
35.5933
17.3652
13.1384
11.4521
10.7448
178.981
35.9303
17.2851
12.9556
11.2894
10.6364
179.033
36.3135
17.2228
12.7901
11.1392
10.5375
179.062
36.9152
17.181
12.6402
10.9997
10.4464
179.065
37.6787
17.1608
12.5046
10.8692
10.362
179.042
38.5029
17.185
12.3823
10.7471
10.2834
178.995
39.319
17.2585
12.2729
10.6333
10.2102
178.924
40.0851
17.3513
12.182
10.5287
10.1428
178.834
40.7579
17.4483
12.1032
10.4343
10.0819
178.729
41.2937
17.5327
12.0314
10.3492
10.0276
178.615
41.646
17.5856
11.9607
10.2723
9.98017
178.498
41.7661
17.5864
11.8843
10.2028
9.94067
178.387
41.6071
17.509
11.7994
10.1391
9.91041
178.29
41.0674
17.376
11.7095
10.0839
9.8923
178.212
40.4073
17.2032
11.613
10.0395
9.8916
178.163
39.6708
16.9884
11.5095
10.0093
9.91567
178.151
38.8292
16.7303
11.4008
9.99967
9.97507
178.186
37.8674
16.4274
11.2929
10.0207
10.0862
178.28
36.776
16.0858
11.1994
10.0901
10.2759
178.441
35.5813
15.7093
11.1423
10.2426
10.5897
178.679
34.3082
15.3294
11.1572
10.5372
11.1164
179.005
33.0087
14.9941
11.299
11.094
12.0149
179.43
31.8579
14.7681
11.6844
12.1386
13.6865
179.966
30.9572
14.7326
12.5439
14.2458
16.9805
180.624
30.396
15.1089
14.6008
19.7741
28.8176
181.409
30.224
16.9383
23.4801
50.4495
114.608
182.1
30.2383
19.1029
31.8446
72.8734
184.718
182.855
30.5177
21.2829
38.0978
83.5214
185.034
183.664
31.0064
23.1737
42.4305
88.4103
184.046
207.84
207.591
207.635
207.674
207.687
207.723
207.749
207.757
207.745
207.722
207.692
207.657
207.609
207.557
207.511
207.478
207.461
207.454
207.451
207.451
207.451
207.451
207.451
207.451
207.451
207.451
207.451
207.451
207.451
207.45
207.45
207.45
207.45
176.934
63.032
36.8
32.8098
31.2079
30.3345
30.0106
30.0856
30.5298
31.3332
32.4808
35.2357
40.3147
45.1948
49.0213
51.0607
50.8737
48.859
45.9752
42.8589
39.8565
37.6352
36.2802
35.9176
35.8285
35.7885
35.7478
35.7088
35.6358
35.5518
35.4814
35.5288
36.2468
43.391
146.418
36.6952
16.5421
13.3172
12.3769
11.7508
11.319
11.0021
10.8156
10.7911
10.9629
11.4977
13.2337
16.1168
19.4587
22.5112
24.5421
25.2194
24.5967
22.8605
20.3
17.4949
15.0837
13.4822
12.7108
12.3647
12.2481
12.1661
12.065
11.999
12.0636
12.5851
14.9843
28.2718
146.418
28.0608
13.3456
10.5509
9.66253
8.91375
8.30431
7.76118
7.30152
6.95191
6.73699
6.70251
7.01907
8.1017
9.8758
12.085
14.2409
15.836
16.5577
16.2928
15.0734
13.1277
10.8739
8.82394
7.34031
6.52442
6.13177
5.94109
5.86661
5.92052
6.27655
7.41395
11.0894
26.6447
146.418
26.1435
13.5349
10.6708
9.5539
8.53462
7.70259
6.97647
6.35682
5.85405
5.47933
5.24762
5.20407
5.53378
6.34023
7.63611
9.25119
10.8342
12.0054
12.507
12.2272
11.1956
9.59266
7.74872
6.05295
4.79923
4.09561
3.7635
3.70041
3.89176
4.51697
6.08854
10.3865
26.5906
146.418
26.4496
14.7199
11.5045
10.0129
8.67172
7.6011
6.71386
5.97822
5.38179
4.92307
4.60433
4.43778
4.49386
4.8551
5.5881
6.67986
7.96446
9.14388
9.93452
10.1523
9.74705
8.76609
7.36087
5.77733
4.40707
3.45839
2.95819
2.84618
3.11507
3.8983
5.70263
10.2888
26.7246
146.418
27.4424
16.1435
12.4979
10.5907
8.9289
7.62401
6.59663
5.76962
5.10375
4.5874
4.21853
3.9977
3.94953
4.11819
4.55625
5.29431
6.27251
7.29673
8.1338
8.5675
8.51441
7.96833
6.99086
5.68501
4.39657
3.37067
2.7267
2.50796
2.75358
3.57812
5.48037
10.23
26.8462
146.418
28.7024
17.6616
13.534
11.1792
9.21383
7.69448
6.54886
5.64961
4.92558
4.35798
3.94844
3.69607
3.60652
3.69565
3.98897
4.51576
5.25772
6.10002
6.86835
7.36765
7.49462
7.21299
6.54601
5.55257
4.44084
3.45807
2.74812
2.41062
2.53675
3.29927
5.19741
10.0446
26.8651
146.418
30.0457
19.1328
14.5648
11.7502
9.49514
7.7902
6.55125
5.59698
4.82928
4.21797
3.76915
3.49072
3.3838
3.44454
3.66974
4.07352
4.64813
5.32851
5.99439
6.48653
6.67304
6.54146
6.07951
5.33533
4.42656
3.55519
2.86013
2.44895
2.41448
3.00987
4.79907
9.66166
26.6661
146.418
31.351
20.6013
15.5828
12.2811
9.73487
7.87925
6.5893
5.60719
4.81019
4.17311
3.69886
3.39957
3.28307
3.33314
3.52006
3.84254
4.29584
4.84404
5.40228
5.84054
6.03933
5.97386
5.6339
5.06047
4.33865
3.60324
2.97517
2.54813
2.40774
2.77882
4.29262
9.04072
26.1626
146.419
32.5722
22.018
16.5597
12.7587
9.93814
7.97397
6.66136
5.68118
4.88593
4.24841
3.77404
3.47186
3.34899
3.37853
3.52268
3.77192
4.12172
4.56053
5.0187
5.38512
5.55857
5.5107
5.23558
4.77213
4.19599
3.59735
3.06261
2.66184
2.4663
2.67979
3.92965
8.28457
25.4057
146.419
33.788
23.3363
17.4645
13.1843
10.1092
8.09173
6.79087
5.84901
5.10102
4.50184
4.05001
3.75383
3.62044
3.61487
3.70691
3.88448
4.13862
4.45643
4.79619
5.08569
5.21857
5.15723
4.90903
4.51199
4.03969
3.55788
3.11829
2.76259
2.55413
2.66875
3.69829
7.77441
24.6379
146.419
34.9237
24.5133
18.2667
13.5523
10.2746
8.24982
7.00593
6.14025
5.47854
4.96239
4.57329
4.31019
4.18003
4.14053
4.17776
4.28005
4.43527
4.63011
4.83831
5.01329
5.08097
4.98105
4.72626
4.36177
3.94791
3.53971
3.16897
2.8606
2.65855
2.712
3.56537
7.3699
24.1125
146.419
35.8726
25.5477
18.9423
13.8511
10.4429
8.46667
7.32258
6.57694
6.04917
5.6682
5.40008
5.23005
5.15149
5.12024
5.13721
5.19028
5.26648
5.3518
5.42784
5.46685
5.42544
5.25114
4.92683
4.52476
4.09606
3.68405
3.31771
3.01252
2.80022
2.8028
3.51547
7.03449
23.6222
146.419
36.583
26.4497
19.486
14.0969
10.6351
8.75931
7.75771
7.1757
6.82786
6.63424
6.55143
6.55374
6.57468
6.62799
6.70423
6.78809
6.86114
6.90505
6.90062
6.82803
6.66261
6.37574
5.92003
5.35289
4.76333
4.20739
3.7188
3.32127
3.02955
2.95312
3.54172
6.82585
23.1944
146.419
37.0893
27.1689
19.887
14.3101
10.8651
9.14039
8.32046
7.9359
7.79794
7.819
7.94654
8.12841
8.31483
8.52194
8.73244
8.93043
9.09245
9.1937
9.2023
9.09392
8.84569
8.43679
7.84764
7.03668
6.11896
5.24463
4.47298
3.84961
3.3916
3.17749
3.63782
6.73582
22.9164
146.42
37.4289
27.677
20.1359
14.4678
11.1339
9.61332
9.00489
8.83525
8.91392
9.14942
9.47279
9.80568
10.1675
10.5454
10.9197
11.2727
11.5901
11.853
11.9912
11.9654
11.7372
11.271
10.5392
9.52577
8.21932
6.86247
5.6246
4.63054
3.90064
3.47935
3.79524
6.75987
22.8206
146.422
37.6197
27.9762
20.2372
14.5633
11.4412
10.1712
9.7881
9.83001
10.1108
10.5129
10.9503
11.4321
11.9418
12.4584
12.9606
13.4291
13.8478
14.1571
14.3543
14.4118
14.2914
13.9463
13.3271
12.3903
11.0965
9.34565
7.34368
5.75198
4.59101
3.86765
4.00998
6.8906
22.9154
146.424
37.6719
28.0762
20.208
14.635
11.7925
10.7914
10.6242
10.8498
11.2447
11.7147
12.2464
12.8154
13.3967
13.9675
14.5059
14.9915
15.4046
15.7527
16.0392
16.2441
16.3283
16.2325
15.8779
15.1741
14.0309
12.3758
10.1586
7.59348
5.63595
4.42095
4.29793
7.12246
23.1809
146.427
37.595
27.9937
20.0531
14.6964
12.1776
11.4296
11.4334
11.7097
12.1158
12.5993
13.1209
13.6495
14.1623
14.6438
15.0846
15.4795
15.8259
16.1767
16.5542
16.9453
17.3146
17.6039
17.72
17.535
16.8905
15.617
13.5836
10.7541
7.56615
5.37508
4.73119