/*--------------------------------*- C++ -*----------------------------------*\
| =========                 |                                                 |
| \\      /  F ield         | OpenFOAM: The Open Source CFD Toolbox           |
|  \\    /   O peration     | Version:  v2012                                 |
|   \\  /    A nd           | Website:  www.openfoam.com                      |
|    \\/     M anipulation  |                                                 |
\*---------------------------------------------------------------------------*/
FoamFile
{
    version     2.0;
    format      ascii;
    class       surfaceScalarField;
    location    "567";
    object      phi;
}
// * * * * * * * * * * * * * * * * * * * * * * * * * * * * * * * * * * * * * //

dimensions      [0 3 -1 0 0 0 0];
oriented        oriented;


internalField   nonuniform List<scalar> 
11779
(
-0.000101806
1.01867e-05
9.16196e-05
-0.000110951
9.1448e-06
-0.000119129
8.17773e-06
-0.000126367
7.2382e-06
-0.000132727
6.35974e-06
-0.000138381
5.65426e-06
-0.00014353
5.14917e-06
-0.00014833
4.79932e-06
-0.000152898
4.56804e-06
-0.000157324
4.42636e-06
-0.000161679
4.35558e-06
-0.00016602
4.34002e-06
-0.000170373
4.35363e-06
-0.000174757
4.3838e-06
-0.000179178
4.42074e-06
-0.000183616
4.43818e-06
-0.00018802
4.40407e-06
-0.000192427
4.40657e-06
-0.000196874
4.44713e-06
3.12636e-06
-0.00019297
1.4881e-05
0.000188276
-0.000196327
1.2502e-05
-0.000198653
1.05028e-05
-0.000200267
8.85263e-06
-0.000201454
7.54648e-06
-0.000202343
6.54329e-06
-0.000202988
5.79481e-06
-0.000203439
5.25042e-06
-0.000203735
4.86327e-06
-0.000203904
4.59529e-06
-0.000203972
4.42357e-06
-0.000203971
4.3397e-06
-0.000203923
4.30542e-06
-0.000203816
4.27716e-06
-0.000203641
4.24484e-06
-0.000203395
4.19238e-06
-0.000203058
4.0678e-06
-0.000202494
3.84236e-06
-0.000201524
3.47697e-06
1.60227e-06
-0.000214277
1.57721e-05
0.000213386
-0.000214744
1.29691e-05
-0.00021487
1.06291e-05
-0.000214746
8.72906e-06
-0.00021443
7.22956e-06
-0.000213959
6.07231e-06
-0.000213362
5.1982e-06
-0.000212663
4.55142e-06
-0.000211882
4.08236e-06
-0.000211034
3.74767e-06
-0.000210116
3.50518e-06
-0.000209099
3.32298e-06
-0.000208015
3.22089e-06
-0.000206911
3.17295e-06
-0.000205776
3.11009e-06
-0.000204592
3.00832e-06
-0.000203367
2.8427e-06
-0.000202126
2.60135e-06
-0.000200777
2.12809e-06
8.25477e-07
-0.000220524
1.57254e-05
0.000220571
-0.000220175
1.26199e-05
-0.000219598
1.0052e-05
-0.000218854
7.98512e-06
-0.000217983
6.35847e-06
-0.000217012
5.10096e-06
-0.000215958
4.14462e-06
-0.000214835
3.42852e-06
-0.000213652
2.8996e-06
-0.000212416
2.51105e-06
-0.000211133
2.22211e-06
-0.00020982
2.0098e-06
-0.00020847
1.87145e-06
-0.000207076
1.77896e-06
-0.00020566
1.69385e-06
-0.000204247
1.59514e-06
-0.000202873
1.46919e-06
-0.000201579
1.30743e-06
-0.000200455
1.00348e-06
3.70742e-07
-0.000223474
1.52698e-05
0.00022393
-0.000222715
1.18604e-05
-0.000221749
9.08624e-06
-0.00022065
6.88633e-06
-0.000219463
5.17149e-06
-0.000218214
3.85114e-06
-0.000216915
2.84583e-06
-0.000215575
2.08913e-06
-0.000214201
1.52494e-06
-0.000212795
1.10495e-06
-0.000211363
7.90124e-07
-0.000209909
5.5623e-07
-0.000208428
3.90353e-07
-0.000206925
2.75946e-07
-0.000205425
1.93655e-07
-0.000203963
1.33502e-07
-0.000202583
8.95787e-08
-0.000201333
5.67227e-08
-0.000200361
3.13176e-08
1.01656e-08
-0.000225435
1.44923e-05
0.000226213
-0.000224326
1.07514e-05
-0.000223032
7.79191e-06
-0.000221651
5.50588e-06
-0.000220233
3.75341e-06
-0.000218798
2.41628e-06
-0.000217353
1.40082e-06
-0.0002159
6.36033e-07
-0.000214439
6.39527e-08
-0.00021297
-3.64762e-07
-0.00021149
-6.89061e-07
-0.000209999
-9.35271e-07
-0.000208487
-1.12112e-06
-0.000206964
-1.24757e-06
-0.00020545
-1.32016e-06
-0.000203979
-1.33799e-06
-0.000202592
-1.29693e-06
-0.000201337
-1.19871e-06
-0.000200362
-9.43706e-07
-3.51521e-07
-0.000226604
1.32786e-05
0.000227818
-0.000225118
9.26477e-06
-0.000223503
6.17746e-06
-0.000221886
3.88866e-06
-0.000220306
2.17386e-06
-0.000218773
8.82899e-07
-0.000217277
-9.47795e-08
-0.00021581
-8.31085e-07
-0.000214364
-1.38273e-06
-0.000212931
-1.79708e-06
-0.000211506
-2.11456e-06
-0.000210082
-2.35888e-06
-0.000208643
-2.55987e-06
-0.000207189
-2.70248e-06
-0.000205733
-2.77543e-06
-0.000204292
-2.7795e-06
-0.000202898
-2.69034e-06
-0.000201591
-2.50628e-06
-0.000200458
-2.07636e-06
-8.09639e-07
-0.000225732
1.16449e-05
0.000227366
-0.000223816
7.34867e-06
-0.000221924
4.28589e-06
-0.000220157
2.1208e-06
-0.000218532
5.49088e-07
-0.000217044
-6.04516e-07
-0.000215668
-1.47101e-06
-0.000214374
-2.1252e-06
-0.000213131
-2.62561e-06
-0.00021191
-3.01785e-06
-0.000210695
-3.33039e-06
-0.000209478
-3.57534e-06
-0.000208279
-3.75846e-06
-0.000207094
-3.8883e-06
-0.000205892
-3.97707e-06
-0.000204662
-4.00929e-06
-0.000203405
-3.94747e-06
-0.000202142
-3.76901e-06
-0.000200782
-3.43682e-06
-1.59153e-06
-0.000216147
8.84502e-06
0.000218947
-0.000213383
4.58373e-06
-0.000211146
2.04958e-06
-0.00020947
4.44316e-07
-0.000208224
-6.96158e-07
-0.000207296
-1.53348e-06
-0.000206577
-2.18914e-06
-0.00020601
-2.69226e-06
-0.000205553
-3.08273e-06
-0.000205179
-3.3921e-06
-0.000204868
-3.6418e-06
-0.000204601
-3.84176e-06
-0.000204353
-4.00632e-06
-0.000204097
-4.14496e-06
-0.000203816
-4.25757e-06
-0.000203498
-4.32692e-06
-0.000203113
-4.33324e-06
-0.000202515
-4.36709e-06
-0.000201527
-4.42457e-06
-3.11839e-06
-0.000153029
0.000161874
-0.000148445
-0.000146396
-0.000145952
-0.000146648
-0.000148181
-0.00015037
-0.000153063
-0.000156145
-0.000159537
-0.000163179
-0.000167021
-0.000171027
-0.000175172
-0.00017943
-0.000183757
-0.00018809
-0.000192457
-0.000196882
1.02901e-05
-3.0825e-06
-7.20756e-06
1.16208e-05
-1.3307e-06
1.10678e-05
5.52951e-07
9.11074e-06
1.95706e-06
6.60761e-06
2.50312e-06
4.3559e-06
2.25171e-06
2.77088e-06
1.58501e-06
1.98506e-06
7.85823e-07
2.03806e-06
-5.30012e-08
2.95654e-06
-9.18487e-07
4.86147e-06
-1.90494e-06
7.11107e-06
-2.2496e-06
9.05786e-06
-1.94679e-06
1.0233e-05
-1.17518e-06
1.0471e-05
-2.37935e-07
1.01294e-05
3.41526e-07
9.79246e-06
3.36981e-07
9.74767e-06
4.47938e-08
9.92393e-06
-1.76263e-07
9.97527e-06
-5.13445e-08
9.60497e-06
3.703e-07
8.68199e-06
9.2298e-07
7.15651e-06
1.52548e-06
4.69543e-06
2.46108e-06
7.78595e-07
3.91684e-06
-4.84685e-06
5.62544e-06
-1.21308e-05
7.28395e-06
-2.10082e-05
8.87737e-06
-3.1415e-05
1.04068e-05
-4.30475e-05
1.16326e-05
-5.54887e-05
1.24411e-05
-6.81207e-05
1.2632e-05
-8.0303e-05
1.21824e-05
1.13166e-05
2.20747e-05
-7.88409e-06
-1.72731e-05
2.47667e-05
-4.0227e-06
2.51825e-05
1.37121e-07
2.34204e-05
3.71911e-06
2.00296e-05
5.89396e-06
1.592e-05
6.36135e-06
1.21746e-05
5.33034e-06
9.6695e-06
3.29095e-06
8.85992e-06
7.56573e-07
9.80605e-06
-1.86462e-06
1.22618e-05
-4.36069e-06
1.48735e-05
-4.8613e-06
1.69427e-05
-4.016e-06
1.79283e-05
-2.16073e-06
1.78574e-05
-1.67041e-07
1.7053e-05
1.14585e-06
1.56236e-05
1.7664e-06
1.33948e-05
2.27364e-06
1.0209e-05
3.00949e-06
5.86828e-06
4.28939e-06
-2.87256e-07
6.52583e-06
-9.52183e-06
1.01576e-05
-2.26064e-05
1.46101e-05
-3.90583e-05
1.89129e-05
-5.76392e-05
2.24978e-05
-7.72534e-05
2.52396e-05
-9.70137e-05
2.70443e-05
-0.000116093
2.79567e-05
-0.000133725
2.80384e-05
-0.000149365
2.72733e-05
-0.000162603
2.56788e-05
-0.000173367
2.33956e-05
-0.000181835
2.06508e-05
1.77574e-05
3.17289e-05
-1.25206e-05
-2.70923e-05
3.41176e-05
-6.41148e-06
3.43169e-05
-6.21628e-08
3.26278e-05
5.40824e-06
2.94545e-05
9.06726e-06
2.53366e-05
1.04792e-05
2.11308e-05
9.53609e-06
1.78143e-05
6.60743e-06
1.61155e-05
2.45537e-06
1.61656e-05
-1.91472e-06
1.72762e-05
-5.4713e-06
1.79936e-05
-5.57869e-06
1.77773e-05
-3.79967e-06
1.63912e-05
-7.74632e-07
1.39986e-05
2.2256e-06
1.06096e-05
4.53479e-06
5.78925e-06
6.58676e-06
-1.25711e-06
9.32e-06
-1.16566e-05
1.34089e-05
-2.63017e-05
1.89345e-05
-4.51168e-05
2.53409e-05
-6.67704e-05
3.18111e-05
-8.96208e-05
3.74605e-05
-0.000112273
4.15654e-05
-0.000133614
4.38386e-05
-0.000152789
4.44144e-05
-0.000169263
4.35187e-05
-0.000182751
4.14443e-05
-0.000193189
3.84765e-05
-0.000200814
3.48982e-05
-0.000206098
3.0963e-05
-0.000209609
2.69062e-05
-0.000211898
2.29399e-05
1.92453e-05
3.85084e-05
-1.59956e-05
-3.50334e-05
3.96925e-05
-7.5956e-06
3.9061e-05
5.69337e-07
3.70722e-05
7.39708e-06
3.39622e-05
1.21772e-05
3.011e-05
1.43315e-05
2.60948e-05
1.35513e-05
2.26608e-05
1.00414e-05
2.04132e-05
4.70293e-06
1.91347e-05
-6.36167e-07
1.75599e-05
-3.89652e-06
1.51473e-05
-3.16613e-06
1.15191e-05
-1.7145e-07
6.72451e-06
4.01995e-06
5.38296e-07
8.41181e-06
-7.9139e-06
1.2987e-05
-1.99571e-05
1.86299e-05
-3.64192e-05
2.57822e-05
-5.70606e-05
3.40503e-05
-8.06183e-05
4.24922e-05
-0.000105229
4.99513e-05
-0.000128974
5.55566e-05
-0.000150371
5.88573e-05
-0.000168596
5.97905e-05
-0.000183385
5.86275e-05
-0.000194821
5.58501e-05
-0.000203258
5.19557e-05
-0.000209216
4.74031e-05
-0.000213308
4.2568e-05
-0.000216113
3.77037e-05
-0.000218064
3.29134e-05
-0.000219396
2.8238e-05
-0.000220214
2.37587e-05
1.96019e-05
4.07437e-05
-1.772e-05
-3.90193e-05
4.05866e-05
-7.43857e-06
3.91695e-05
1.9865e-06
3.67898e-05
9.77677e-06
3.36371e-05
1.53299e-05
2.99835e-05
1.79851e-05
2.62204e-05
1.73144e-05
2.28008e-05
1.3461e-05
1.98352e-05
7.66858e-06
1.66333e-05
2.56573e-06
1.21443e-05
5.92464e-07
6.40995e-06
2.56821e-06
-9.76429e-07
7.21493e-06
-1.03718e-05
1.34153e-05
-2.27788e-05
2.08188e-05
-3.92855e-05
2.94936e-05
-5.99872e-05
3.93316e-05
-8.38317e-05
4.96267e-05
-0.000108979
5.91971e-05
-0.0001333
6.68142e-05
-0.000155054
7.17049e-05
-0.000173205
7.37075e-05
-0.000187449
7.31017e-05
-0.000198071
7.04122e-05
-0.000205698
6.62543e-05
-0.00021106
6.12123e-05
-0.000214859
5.57544e-05
-0.00021766
5.02043e-05
-0.000219816
4.47244e-05
-0.00022148
3.93675e-05
-0.000222722
3.41546e-05
-0.000223566
2.90828e-05
-0.000223977
2.41694e-05
1.95547e-05
3.79449e-05
-1.73148e-05
-3.83501e-05
3.66219e-05
-6.11552e-06
3.46522e-05
3.95611e-06
3.2093e-05
1.2336e-05
2.90149e-05
1.8408e-05
2.5559e-05
2.14409e-05
2.19649e-05
2.09086e-05
1.83634e-05
1.70625e-05
1.42939e-05
1.17381e-05
8.85328e-06
8.00637e-06
1.42273e-06
8.02302e-06
-8.20661e-06
1.21976e-05
-2.06374e-05
1.96457e-05
-3.65988e-05
2.93768e-05
-5.6397e-05
4.0617e-05
-7.95378e-05
5.26344e-05
-0.000104544
6.43377e-05
-0.000129366
7.44486e-05
-0.000151958
8.17895e-05
-0.000170919
8.5775e-05
-0.000185744
8.65299e-05
-0.000196671
8.46344e-05
-0.000204397
8.0828e-05
-0.000209793
7.58086e-05
-0.000213667
7.01275e-05
-0.000216624
6.41701e-05
-0.000219054
5.81838e-05
-0.000221142
5.22926e-05
-0.000222936
4.65181e-05
-0.00022441
4.08412e-05
-0.000225526
3.52713e-05
-0.000226263
2.98199e-05
-0.000226518
2.4424e-05
1.92495e-05
3.15309e-05
-1.58059e-05
-3.30399e-05
2.94965e-05
-4.08112e-06
2.71335e-05
6.31918e-06
2.44306e-05
1.50389e-05
2.13564e-05
2.14822e-05
1.79574e-05
2.48399e-05
1.43112e-05
2.45548e-05
1.01605e-05
2.12131e-05
4.5501e-06
1.73485e-05
-3.52523e-06
1.60817e-05
-1.47329e-05
1.92306e-05
-2.95557e-05
2.70203e-05
-4.81299e-05
3.82199e-05
-7.00883e-05
5.13353e-05
-9.4391e-05
6.49197e-05
-0.000119378
7.76217e-05
-0.000143023
8.79821e-05
-0.000163506
9.49322e-05
-0.000179826
9.81093e-05
-0.000191945
9.78944e-05
-0.000200511
9.50952e-05
-0.000206456
9.05792e-05
-0.00021069
8.50626e-05
-0.000213931
7.90497e-05
-0.000216639
7.28353e-05
-0.00021904
6.65705e-05
-0.000221213
6.03569e-05
-0.000223163
5.4243e-05
-0.00022487
4.82244e-05
-0.000226286
4.22582e-05
-0.000227349
3.63338e-05
-0.000228036
3.0507e-05
-0.000228319
2.47069e-05
1.87485e-05
2.38334e-05
-1.34794e-05
-2.61598e-05
2.12389e-05
-1.48663e-06
1.84222e-05
9.13592e-06
1.53554e-05
1.81057e-05
1.19965e-05
2.48411e-05
8.35298e-06
2.84834e-05
4.30398e-06
2.86038e-05
-9.83957e-07
2.6501e-05
-8.94948e-06
2.5314e-05
-2.0732e-05
2.78642e-05
-3.68329e-05
3.53315e-05
-5.69368e-05
4.71243e-05
-8.0039e-05
6.1322e-05
-0.000104719
7.6015e-05
-0.000129199
8.94003e-05
-0.000151475
9.98973e-05
-0.000170012
0.000106519
-0.000184186
0.000109106
-0.000194322
0.000108246
-0.000201319
0.000104892
-0.000206214
9.99896e-05
-0.000209872
9.42371e-05
-0.000212865
8.80555e-05
-0.000215505
8.16901e-05
-0.000217932
7.52623e-05
-0.000220148
6.87864e-05
-0.000222112
6.23208e-05
-0.000223801
5.59326e-05
-0.000225184
4.96067e-05
-0.000226258
4.3333e-05
-0.000227046
3.71217e-05
-0.000227582
3.1043e-05
-0.000227878
2.50023e-05
1.82365e-05
1.60805e-05
-1.06278e-05
-1.89322e-05
1.29318e-05
1.66208e-06
9.50977e-06
1.2558e-05
5.81403e-06
2.18015e-05
1.88409e-06
2.87711e-05
-2.30034e-06
3.26678e-05
-7.38661e-06
3.369e-05
-1.49038e-05
3.40182e-05
-2.63872e-05
3.67974e-05
-4.25939e-05
4.40709e-05
-6.3122e-05
5.58596e-05
-8.65736e-05
7.05759e-05
-0.0001112
8.59482e-05
-0.000134995
9.98104e-05
-0.000156036
0.000110441
-0.000173
0.000116861
-0.000185567
0.000119086
-0.000194318
0.000117857
-0.000200301
0.000114229
-0.000204562
0.000109153
-0.000207884
0.000103311
-0.000210729
9.70818e-05
-0.000213256
9.05834e-05
-0.000215449
8.38829e-05
-0.000217242
7.70552e-05
-0.000218689
7.02337e-05
-0.000219828
6.34593e-05
-0.000220593
5.66981e-05
-0.000221023
5.00363e-05
-0.000221191
4.3501e-05
-0.000221062
3.69929e-05
-0.000220492
3.04724e-05
-0.000219709
2.42193e-05
1.74752e-05
8.65856e-06
-1.20075e-05
-7.27883e-06
4.88178e-06
5.43886e-06
7.09409e-07
1.67303e-05
-3.75519e-06
2.62661e-05
-8.41886e-06
3.34347e-05
-1.36875e-05
3.79365e-05
-2.08717e-05
4.08742e-05
-3.16846e-05
4.48311e-05
-4.71841e-05
5.22969e-05
-6.72081e-05
6.4095e-05
-9.03898e-05
7.90413e-05
-0.000114639
9.48256e-05
-0.000137745
0.000109053
-0.000157771
0.000119837
-0.000173549
0.00012622
-0.000184969
0.00012828
-0.000192767
0.000126884
-0.000198063
0.000123153
-0.000201893
0.000118058
-0.000204912
0.000112172
-0.000207395
0.000105794
-0.000209368
9.90551e-05
-0.000210831
9.20467e-05
-0.000211675
8.47268e-05
-0.000211698
7.70778e-05
-0.000210691
6.9227e-05
-0.000208403
6.11707e-05
-0.000204665
5.2961e-05
-0.000199373
4.47435e-05
-0.000192583
3.67113e-05
-0.000184697
2.91067e-05
-0.000175969
2.17447e-05
-0.000166351
1.46009e-05
1.29988e-05
-9.72752e-07
9.72751e-07
-2.02856e-06
1.0558e-06
-1.87101e-06
-1.57551e-07
9.65778e-08
-1.96759e-06
3.4871e-06
-3.39052e-06
-3.72046e-06
-1.198e-06
2.17075e-06
-1.47781e-06
1.33561e-06
7.4741e-07
-2.38277e-06
5.5377e-06
-6.75788e-06
1.15212e-05
-9.37398e-06
-9.47237e-06
-5.82553e-07
2.7533e-06
1.11324e-06
-3.60185e-07
6.30962e-06
-7.57916e-06
1.35549e-05
-1.40032e-05
2.09306e-05
-1.67496e-05
-1.56341e-05
4.55647e-07
2.29765e-06
4.87071e-06
-4.77525e-06
1.29721e-05
-1.56806e-05
2.19371e-05
-2.29682e-05
2.95724e-05
-2.43849e-05
-2.10951e-05
1.80288e-06
4.94771e-07
9.42221e-06
-1.23946e-05
1.97034e-05
-2.59617e-05
2.8884e-05
-3.21488e-05
3.52754e-05
-3.07762e-05
-2.4839e-05
3.76255e-06
-3.26778e-06
1.42025e-05
-2.28345e-05
2.49682e-05
-3.67274e-05
3.25917e-05
-3.97723e-05
3.68473e-05
-3.50319e-05
-2.63419e-05
6.1899e-06
-9.45768e-06
1.80893e-05
-3.4734e-05
2.73699e-05
-4.6008e-05
3.21946e-05
-4.45971e-05
3.35643e-05
-3.64016e-05
-2.58174e-05
8.80645e-06
-1.82641e-05
2.00787e-05
-4.60063e-05
2.64957e-05
-5.24249e-05
2.84833e-05
-4.65846e-05
2.78834e-05
-3.58017e-05
-2.40939e-05
1.07045e-05
-2.89686e-05
1.96121e-05
-5.49138e-05
2.30191e-05
-5.58319e-05
2.29598e-05
-4.65254e-05
2.12513e-05
-3.40932e-05
-2.17748e-05
1.0894e-05
-3.98627e-05
1.69498e-05
-6.09696e-05
1.82667e-05
-5.71488e-05
1.69579e-05
-4.52166e-05
1.47027e-05
-3.1838e-05
-1.90796e-05
1.41669e-06
-3.07672e-06
-5.61881e-06
-3.3959e-06
1.02515e-05
-8.69736e-06
2.20318e-05
-1.43476e-05
3.19163e-05
-2.05297e-05
3.96168e-05
-2.82497e-05
4.56565e-05
-3.91899e-05
5.18143e-05
-5.4727e-05
6.03683e-05
-7.5022e-05
7.25918e-05
-9.87968e-05
8.78698e-05
-0.000123782
0.000104026
-0.000147448
0.000118492
-0.0001677
0.000129305
-0.000183407
0.000135543
-0.000194572
0.000137386
-0.000202076
0.000135784
-0.000207116
0.000131924
-0.000210664
0.000126701
-0.000213266
0.000120661
-0.000215129
0.000114035
-0.000216072
0.000106736
-0.000215624
9.86072e-05
-0.000213109
8.95311e-05
-0.000207824
7.94423e-05
-0.000199352
6.86054e-05
-0.000187453
5.73287e-05
-0.000172134
4.58514e-05
-0.00015373
3.45566e-05
-0.000132804
2.3818e-05
-0.000110088
1.39954e-05
-8.6529e-05
5.54754e-06
-6.27921e-05
-1.99224e-06
-3.70541e-05
-1.11371e-05
-2.40553e-05
-6.37326e-06
1.90214e-06
1.3944e-06
-1.20631e-05
1.59413e-05
-1.83333e-05
2.8302e-05
-2.52327e-05
3.88157e-05
-3.3401e-05
4.7785e-05
-4.41647e-05
5.64202e-05
-5.88976e-05
6.65473e-05
-7.8064e-05
7.95346e-05
-0.000100701
9.52288e-05
-0.000124647
0.000111816
-0.000147334
0.000126713
-0.000166636
0.000137794
-0.00018144
0.000144108
-0.000191811
0.000145914
-0.000198652
0.000144226
-0.000203066
0.000140199
-0.000205906
0.000134764
-0.000207556
0.000128351
-0.000207756
0.000120861
-0.00020579
0.000112069
-0.000200841
0.000101787
-0.000192175
8.99416e-05
-0.000179372
7.67279e-05
-0.000162586
6.2656e-05
-0.000142352
4.83717e-05
-0.000119543
3.452e-05
-9.54787e-05
2.17868e-05
-7.17096e-05
1.07876e-05
-4.98622e-05
1.97059e-06
-3.13125e-05
-4.55432e-06
-1.65621e-05
-9.20286e-06
-4.86244e-06
-1.36919e-05
3.04758e-06
-1.90471e-05
-2.10077e-05
-1.40773e-05
7.74404e-06
8.23537e-06
-2.07383e-05
2.26023e-05
-2.8219e-05
3.57827e-05
-3.68973e-05
4.7494e-05
-4.77121e-05
5.85998e-05
-6.18399e-05
7.0548e-05
-7.99018e-05
8.46092e-05
-0.000101287
0.00010092
-0.00012411
0.000118052
-0.000145872
0.000133577
-0.000164406
0.000145247
-0.000178561
0.00015195
-0.000188344
0.000153892
-0.000194583
0.000152153
-0.000198282
0.000147926
-0.000200139
0.000142055
-0.000200105
0.000134729
-0.000197519
0.000125766
-0.000191598
0.00011494
-0.000181623
0.000102095
-0.000167231
8.73952e-05
-0.000148647
7.13571e-05
-0.000126757
5.48384e-05
-0.000102954
3.88527e-05
-7.89056e-05
2.43234e-05
-5.64111e-05
1.20256e-05
-3.71121e-05
2.48783e-06
-2.19586e-05
-4.36591e-06
-1.08987e-05
-9.08933e-06
-3.26127e-06
-1.21918e-05
1.85291e-06
-1.4317e-05
4.5485e-06
-1.63875e-05
4.32418e-06
-1.88228e-05
-1.66835e-05
-2.18529e-05
1.45605e-05
1.50364e-05
-2.96805e-05
3.043e-05
-3.87596e-05
4.48618e-05
-4.97191e-05
5.84535e-05
-6.34472e-05
7.23279e-05
-8.05696e-05
8.76704e-05
-0.000100759
0.000104799
-0.000122477
0.000122638
-0.000143407
0.000138982
-0.000161358
0.000151528
-0.000175078
0.000158967
-0.000184475
0.000161347
-0.000190196
0.000159613
-0.000193087
0.000155044
-0.000193577
0.000148416
-0.000191343
0.000139821
-0.000185688
0.000129074
-0.000175909
0.000115987
-0.000161619
0.000100649
-0.000143053
8.35297e-05
-0.000121145
6.54873e-05
-9.74203e-05
4.7632e-05
-7.37104e-05
3.11285e-05
-5.17889e-05
1.69312e-05
-3.30887e-05
5.62318e-06
-1.8381e-05
-2.68212e-06
-7.53227e-06
-8.36091e-06
8.96829e-08
-1.19879e-05
4.9897e-06
-1.39893e-05
7.60631e-06
-1.48084e-05
8.33339e-06
-1.50441e-05
7.26407e-06
-1.53182e-05
4.12606e-06
-1.56848e-05
-1.25575e-05
-2.98647e-05
2.25176e-05
2.19075e-05
-3.91369e-05
3.97022e-05
-5.01825e-05
5.59075e-05
-6.36595e-05
7.19305e-05
-8.0038e-05
8.87064e-05
-9.9177e-05
0.000106809
-0.000119877
0.000125498
-0.000140083
0.000142844
-0.000157634
0.000156533
-0.000171112
0.000165006
-0.000180199
0.000168055
-0.000185369
0.000166517
-0.000187436
0.00016168
-0.000186544
0.000154152
-0.000182156
0.000144028
-0.000173678
0.000131343
-0.00016065
0.000116046
-0.000143172
9.85092e-05
-0.000122052
7.95294e-05
-9.87444e-05
6.02216e-05
-7.50712e-05
4.18142e-05
-5.28495e-05
2.54102e-05
-3.35084e-05
1.17874e-05
-1.78368e-05
1.25961e-06
-5.87155e-06
-6.34208e-06
2.8415e-06
-1.13952e-05
8.78532e-06
-1.43047e-05
1.23505e-05
-1.55531e-05
1.39588e-05
-1.55976e-05
1.38549e-05
-1.47044e-05
1.22596e-05
-1.34488e-05
9.25566e-06
-1.23143e-05
4.7392e-06
-1.11683e-05
-7.81827e-06
-3.82647e-05
3.18436e-05
2.89388e-05
-4.92503e-05
5.06877e-05
-6.24415e-05
6.90987e-05
-7.82595e-05
8.77486e-05
-9.65307e-05
0.000106978
-0.000116339
0.000126617
-0.000135923
0.000145083
-0.000153228
0.000160149
-0.000166694
0.00017
-0.000175724
0.000174035
-0.000180615
0.000172946
-0.000181944
0.000167846
-0.000179687
0.000159423
-0.000173355
0.00014782
-0.000162542
0.000133214
-0.000147074
0.000115875
-0.000127473
9.64452e-05
-0.000104981
7.60178e-05
-8.13308e-05
5.58788e-05
-5.83692e-05
3.72599e-05
-3.76581e-05
2.11031e-05
-2.02023e-05
7.95442e-06
-6.35194e-06
-2.06294e-06
4.1266e-06
-9.21893e-06
1.17107e-05
-1.39262e-05
1.67041e-05
-1.63886e-05
1.94664e-05
-1.7067e-05
2.03935e-05
-1.64803e-05
1.97597e-05
-1.49638e-05
1.78154e-05
-1.27601e-05
1.47268e-05
-1.03602e-05
1.05021e-05
-8.08967e-06
5.06827e-06
-5.73447e-06
-2.75e-06
-4.70643e-05
4.28011e-05
3.61067e-05
-6.001e-05
6.36335e-05
-7.52826e-05
8.43713e-05
-9.28104e-05
0.000105276
-0.000111849
0.000126016
-0.000130924
0.000145692
-0.000148103
0.000162262
-0.000161722
0.000173768
-0.000171
0.000179277
-0.000175828
0.000178864
-0.00017662
0.000173738
-0.000173313
0.00016454
-0.000165504
0.000151614
-0.000152958
0.000135273
-0.000135833
0.00011609
-0.000114972
9.50142e-05
-9.18801e-05
7.33529e-05
-6.83736e-05
5.25113e-05
-4.61731e-05
3.36783e-05
-2.65573e-05
1.76441e-05
-1.02007e-05
4.74653e-06
2.73004e-06
-4.97637e-06
1.24599e-05
-1.17928e-05
1.93498e-05
-1.61088e-05
2.37422e-05
-1.83186e-05
2.5933e-05
-1.85794e-05
2.62741e-05
-1.74081e-05
2.52103e-05
-1.54165e-05
2.29595e-05
-1.2713e-05
1.97804e-05
-9.58094e-06
1.57771e-05
-6.35687e-06
1.08961e-05
-3.20871e-06
5.07584e-06
8.57915e-08
2.32584e-06
-5.62869e-05
5.55635e-05
4.35246e-05
-7.11555e-05
7.8502e-05
-8.80792e-05
0.000101295
-0.000106427
0.000123624
-0.000125035
0.000144624
-0.000142168
0.000162825
-0.000156075
0.000176169
-0.000165686
0.000183379
-0.000170996
0.000184587
-0.000171522
0.000179389
-0.000167572
0.000169787
-0.000158823
0.000155791
-0.0001452
0.000137991
-0.000127136
0.000117209
-0.000105718
9.46719e-05
-8.25686e-05
7.18645e-05
-5.94762e-05
5.02605e-05
-3.79814e-05
3.10165e-05
-1.9116e-05
1.48129e-05
-3.3437e-06
1.87184e-06
9.22041e-06
-7.81758e-06
1.86323e-05
-1.43882e-05
2.51227e-05
-1.82832e-05
2.9008e-05
-1.99941e-05
3.06115e-05
-1.9922e-05
3.05087e-05
-1.84766e-05
2.91371e-05
-1.60366e-05
2.67284e-05
-1.30078e-05
2.35441e-05
-9.52871e-06
1.97536e-05
-5.79053e-06
1.53969e-05
-2.0001e-06
1.03823e-05
1.80586e-06
4.68932e-06
5.77877e-06
7.01516e-06
-6.57448e-05
7.01005e-05
5.12078e-05
-8.22013e-05
9.49585e-05
-0.000100049
0.000119143
-0.000118213
0.000141788
-0.000135311
0.000161723
-0.000149628
0.000177142
-0.000159874
0.000186415
-0.000165756
0.00018926
-0.000166606
0.000185437
-0.000162458
0.000175241
-0.000153314
0.000160643
-0.000139246
0.000141723
-0.000120884
0.000119629
-9.94892e-05
9.58147e-05
-7.67342e-05
7.19169e-05
-5.43207e-05
4.9451e-05
-3.36086e-05
2.95485e-05
-1.54263e-05
1.28343e-05
-6.85987e-08
-5.44804e-07
1.22967e-05
-1.04935e-05
2.16301e-05
-1.71509e-05
2.79041e-05
-2.06622e-05
3.14017e-05
-2.17809e-05
3.27494e-05
-2.13418e-05
3.23088e-05
-1.94814e-05
3.05914e-05
-1.67592e-05
2.80602e-05
-1.35054e-05
2.50015e-05
-9.94907e-06
2.15751e-05
-6.10226e-06
1.7808e-05
-2.02345e-06
1.36505e-05
2.15738e-06
9.01363e-06
6.44274e-06
3.97886e-06
1.08135e-05
1.0994e-05
-7.5034e-05
8.6142e-05
5.89924e-05
-9.24856e-05
0.00011241
-0.000110394
0.000137051
-0.000127445
0.000158838
-0.000142243
0.000176522
-0.000153343
0.000188241
-0.000160089
0.000193161
-0.000161704
0.000190876
-0.00015774
0.000181473
-0.00014879
0.000166292
-0.000134856
0.000146709
-0.000116753
0.00012362
-9.58651e-05
9.87407e-05
-7.3893e-05
7.38426e-05
-5.24571e-05
5.04809e-05
-3.2767e-05
2.97609e-05
-1.54912e-05
1.22727e-05
-8.051e-07
-1.85188e-06
1.11966e-05
-1.25465e-05
2.02126e-05
-1.95095e-05
2.64232e-05
-2.33616e-05
3.01366e-05
-2.43756e-05
3.14299e-05
-2.30742e-05
3.06682e-05
-2.05801e-05
2.86744e-05
-1.74876e-05
2.60715e-05
-1.41563e-05
2.32934e-05
-1.07273e-05
2.04478e-05
-7.10349e-06
1.74877e-05
-3.14219e-06
1.43029e-05
1.16142e-06
1.07917e-05
5.66854e-06
6.89045e-06
1.0344e-05
2.8167e-06
1.48873e-05
1.38107e-05
-8.36318e-05
0.000103225
6.65485e-05
-0.000101374
0.000130153
-0.00011855
0.000154227
-0.000133816
0.000174105
-0.000145893
0.000188599
-0.000153662
0.00019601
-0.00015641
0.000195909
-0.000153341
0.000187807
-0.000144925
0.000173057
-0.000131654
0.000153021
-0.00011428
0.000129335
-9.42817e-05
0.000103622
-7.33983e-05
7.78574e-05
-5.32115e-05
5.36558e-05
-3.4844e-05
3.21135e-05
-1.88681e-05
1.3785e-05
-5.39766e-06
-1.19777e-06
5.55444e-06
-1.2804e-05
1.38835e-05
-2.08755e-05
1.97239e-05
-2.53499e-05
2.3108e-05
-2.67457e-05
2.42904e-05
-2.55579e-05
2.40151e-05
-2.27989e-05
2.25685e-05
-1.91335e-05
2.04924e-05
-1.54116e-05
1.82936e-05
-1.19574e-05
1.62213e-05
-8.65504e-06
1.42482e-05
-5.13035e-06
1.21961e-05
-1.09015e-06
9.89769e-06
3.45985e-06
7.24092e-06
8.32531e-06
4.20966e-06
1.33753e-05
1.25483e-06
1.78421e-05
1.50655e-05
-9.10528e-05
0.000120796
7.34823e-05
-0.000108404
0.000147504
-0.000124194
0.000170017
-0.000137164
0.000187075
-0.000146029
0.000197464
-0.000150398
0.000200379
-0.000148721
0.000194232
-0.000141492
0.000180579
-0.000129224
0.000160788
-0.000112956
0.000136754
-9.4126e-05
0.000110504
-7.45269e-05
8.40232e-05
-5.576e-05
5.90904e-05
-3.89404e-05
3.68362e-05
-2.46281e-05
1.78012e-05
-1.29385e-05
2.0954e-06
-3.80262e-06
-1.03336e-05
2.88565e-06
-1.94922e-05
7.45937e-06
-2.54493e-05
1.0456e-05
-2.83466e-05
1.22561e-05
-2.85458e-05
1.30666e-05
-2.63684e-05
1.29366e-05
-2.26689e-05
1.21394e-05
-1.83363e-05
1.09808e-05
-1.42529e-05
9.80663e-06
-1.07832e-05
8.78413e-06
-7.63254e-06
7.8204e-06
-4.16663e-06
6.70616e-06
2.40991e-08
5.28241e-06
4.8836e-06
3.47052e-06
1.01372e-05
1.35207e-06
1.54937e-05
-3.30791e-07
1.9525e-05
1.47348e-05
-9.68959e-05
0.000138278
7.94131e-05
-0.00011323
0.000163838
-0.000127104
0.00018389
-0.000137466
0.000197437
-0.000143302
0.000203299
-0.000143699
0.000200777
-0.000138029
0.000188561
-0.000127196
0.000169747
-0.000112281
0.000145873
-9.48199e-05
0.000119292
-7.65908e-05
9.2275e-05
-5.92757e-05
6.6708e-05
-4.40613e-05
4.38761e-05
-3.15792e-05
2.43541e-05
-2.2002e-05
8.22405e-06
-1.52121e-05
-4.69458e-06
-1.08089e-05
-1.47368e-05
-7.97562e-06
-2.23255e-05
-5.79439e-06
-2.76305e-05
-3.68781e-06
-3.04532e-05
-1.62629e-06
-3.06073e-05
2.19167e-07
-2.82138e-05
1.54304e-06
-2.39928e-05
2.23848e-06
-1.90317e-05
2.41017e-06
-1.44246e-05
2.33341e-06
-1.07065e-05
2.21883e-06
-7.51795e-06
2.04037e-06
-3.98817e-06
1.64031e-06
4.24153e-07
9.04567e-07
5.61935e-06
-1.89604e-07
1.12314e-05
-1.39349e-06
1.66976e-05
-1.73057e-06
1.9862e-05
1.30042e-05
-0.000100859
0.000155131
8.40064e-05
-0.000115701
0.000178679
-0.000127351
0.000195541
-0.00013488
0.000204966
-0.000137633
0.000206052
-0.000134005
0.000197148
-0.000125082
0.000179639
-0.000111819
0.000156484
-9.58497e-05
0.000129904
-7.90172e-05
0.00010246
-6.30657e-05
7.63236e-05
-4.93246e-05
5.29668e-05
-3.85655e-05
3.31171e-05
-3.1082e-05
1.68706e-05
-2.6738e-05
3.87998e-06
-2.48428e-05
-6.58971e-06
-2.41051e-05
-1.54746e-05
-2.32383e-05
-2.31922e-05
-2.15729e-05
-2.92959e-05
-1.90161e-05
-3.30099e-05
-1.58043e-05
-3.38192e-05
-1.23107e-05
-3.17075e-05
-9.03028e-06
-2.72732e-05
-6.42109e-06
-2.16409e-05
-4.70372e-06
-1.6142e-05
-3.74712e-06
-1.16631e-05
-3.21364e-06
-8.05144e-06
-2.89068e-06
-4.31113e-06
-2.80736e-06
3.40835e-07
-3.04133e-06
5.85332e-06
-3.53157e-06
1.17216e-05
-3.71642e-06
1.68825e-05
-2.55759e-06
1.87032e-05
1.04466e-05
-0.000102794
0.000170889
8.70361e-05
-0.000115794
0.00019168
-0.000125046
0.000204792
-0.000129924
0.000209845
-0.000129142
0.00020527
-0.000122357
0.000190363
-0.000111094
0.000168377
-9.67999e-05
0.000142189
-8.13656e-05
0.000114469
-6.6644e-05
8.7738e-05
-5.41162e-05
6.37958e-05
-4.47458e-05
4.35964e-05
-3.89773e-05
2.73486e-05
-3.66996e-05
1.45928e-05
-3.70275e-05
4.2079e-06
-3.83176e-05
-5.29958e-06
-3.90885e-05
-1.47037e-05
-3.87017e-05
-2.3579e-05
-3.7029e-05
-3.09686e-05
-3.40665e-05
-3.59725e-05
-2.99274e-05
-3.79582e-05
-2.49226e-05
-3.67123e-05
-1.96196e-05
-3.25762e-05
-1.47773e-05
-2.64832e-05
-1.10943e-05
-1.9825e-05
-8.83072e-06
-1.39267e-05
-7.64751e-06
-9.23465e-06
-6.97517e-06
-4.98348e-06
-6.54378e-06
-9.05518e-08
-6.33141e-06
5.64095e-06
-6.12139e-06
1.15116e-05
-5.22831e-06
1.59894e-05
-2.80968e-06
1.62846e-05
7.63692e-06
-0.000102722
0.000185189
8.84217e-05
-0.00011369
0.000202648
-0.000120564
0.000211666
-0.000122752
0.000212033
-0.000118751
0.000201269
-0.000109723
0.000181334
-9.73102e-05
0.000155964
-8.33322e-05
0.000128211
-6.97147e-05
0.000100852
-5.81091e-05
7.61324e-05
-4.96741e-05
5.53608e-05
-4.50292e-05
3.89515e-05
-4.41353e-05
2.64547e-05
-4.60142e-05
1.64717e-05
-4.88703e-05
7.06391e-06
-5.11586e-05
-3.0112e-06
-5.2362e-05
-1.35004e-05
-5.24056e-05
-2.35353e-05
-5.11321e-05
-3.22422e-05
-4.83331e-05
-3.87715e-05
-4.39032e-05
-4.2388e-05
-3.79734e-05
-4.26422e-05
-3.10139e-05
-3.95357e-05
-2.38912e-05
-3.36058e-05
-1.773e-05
-2.59862e-05
-1.34336e-05
-1.82231e-05
-1.10986e-05
-1.15696e-05
-9.96924e-06
-6.11284e-06
-9.22789e-06
-8.31899e-07
-8.53232e-06
4.94537e-06
-7.54345e-06
1.05227e-05
-5.68141e-06
1.41273e-05
-2.50008e-06
1.31032e-05
5.13684e-06
-0.000100831
0.000197843
8.81775e-05
-0.000109773
0.000211589
-0.000114419
0.000216312
-0.000113637
0.000211251
-0.000107319
0.000194951
-9.70588e-05
0.000171074
-8.46847e-05
0.00014359
-7.21387e-05
0.000115665
-6.12131e-05
8.99263e-05
-5.32724e-05
6.81917e-05
-4.91095e-05
5.11979e-05
-4.88156e-05
3.86576e-05
-5.14726e-05
2.91116e-05
-5.52618e-05
2.0261e-05
-5.85842e-05
1.03863e-05
-6.09877e-05
-6.07774e-07
-6.25682e-05
-1.19199e-05
-6.3267e-05
-2.28365e-05
-6.28022e-05
-3.2707e-05
-6.07828e-05
-4.07909e-05
-5.68718e-05
-4.6299e-05
-5.09522e-05
-4.85618e-05
-4.32338e-05
-4.7254e-05
-3.43902e-05
-4.24495e-05
-2.56386e-05
-3.47378e-05
-1.84564e-05
-2.54053e-05
-1.38414e-05
-1.61846e-05
-1.15551e-05
-8.39912e-06
-1.03553e-05
-2.03171e-06
-9.20328e-06
3.79333e-06
-7.59226e-06
8.9117e-06
-5.10356e-06
1.16386e-05
-1.87271e-06
9.8724e-06
3.26413e-06
-9.72753e-05
0.000208716
8.64019e-05
-0.000104145
0.000218459
-0.000106758
0.000218925
-0.000103549
0.000208042
-9.57514e-05
0.000187153
-8.52027e-05
0.000160525
-7.38243e-05
0.000132211
-6.34826e-05
0.000105323
-5.57189e-05
8.21626e-05
-5.15474e-05
6.40202e-05
-5.12034e-05