/*--------------------------------*- C++ -*----------------------------------*\
| =========                 |                                                 |
| \\      /  F ield         | OpenFOAM: The Open Source CFD Toolbox           |
|  \\    /   O peration     | Version:  v2012                                 |
|   \\  /    A nd           | Website:  www.openfoam.com                      |
|    \\/     M anipulation  |                                                 |
\*---------------------------------------------------------------------------*/
FoamFile
{
    version     2.0;
    format      ascii;
    class       volVectorField;
    location    "567";
    object      U;
}
// * * * * * * * * * * * * * * * * * * * * * * * * * * * * * * * * * * * * * //

dimensions      [0 1 -1 0 0 0 0];


internalField   nonuniform List<vector> 
6018
(
(0.0260329 -0.484864 0)
(0.0251693 -0.533005 0)
(0.0241629 -0.576345 0)
(0.0227762 -0.61496 0)
(0.0207788 -0.648735 0)
(0.0190075 -0.678478 0)
(0.0178177 -0.705255 0)
(0.0170391 -0.72996 0)
(0.0165734 -0.753251 0)
(0.0163459 -0.775641 0)
(0.0163146 -0.797532 0)
(0.0164392 -0.819242 0)
(0.0166347 -0.840967 0)
(0.0168148 -0.862772 0)
(0.016929 -0.884702 0)
(0.0168826 -0.906949 0)
(0.0165307 -0.929837 0)
(0.0155047 -0.952776 0)
(0.0115251 -0.972202 0)
(0.00426159 -0.985006 0)
(0.0541569 -0.954985 0)
(0.0462732 -0.974673 0)
(0.0395347 -0.98852 0)
(0.0337643 -0.997947 0)
(0.0291846 -1.00469 0)
(0.0256948 -1.00981 0)
(0.0231316 -1.01358 0)
(0.021312 -1.01627 0)
(0.0200721 -1.01809 0)
(0.0192924 -1.0192 0)
(0.0188886 -1.01976 0)
(0.0187513 -1.01993 0)
(0.0186638 -1.01981 0)
(0.0186241 -1.01941 0)
(0.0186777 -1.01867 0)
(0.018706 -1.01765 0)
(0.0185266 -1.01651 0)
(0.0184473 -1.01486 0)
(0.0187112 -1.00968 0)
(0.00924785 -1.00189 0)
(0.0627086 -1.06975 0)
(0.0521734 -1.07299 0)
(0.0433251 -1.07436 0)
(0.036109 -1.07429 0)
(0.0303925 -1.07313 0)
(0.0259816 -1.07112 0)
(0.0226592 -1.06843 0)
(0.0202079 -1.06517 0)
(0.0184265 -1.06144 0)
(0.0171397 -1.05733 0)
(0.0162038 -1.05294 0)
(0.0155661 -1.04827 0)
(0.0153108 -1.04279 0)
(0.0152253 -1.03728 0)
(0.0150045 -1.03174 0)
(0.0145941 -1.02601 0)
(0.0138884 -1.0201 0)
(0.0127924 -1.01361 0)
(0.0107183 -1.00648 0)
(0.00518788 -1.00117 0)
(0.0634402 -1.10312 0)
(0.051568 -1.10203 0)
(0.0417078 -1.09964 0)
(0.0337382 -1.09628 0)
(0.0274533 -1.09221 0)
(0.0225968 -1.08758 0)
(0.0189164 -1.08251 0)
(0.0161801 -1.07706 0)
(0.0141812 -1.07128 0)
(0.0127334 -1.06521 0)
(0.011672 -1.05892 0)
(0.010904 -1.05244 0)
(0.0104273 -1.04577 0)
(0.0101084 -1.03887 0)
(0.00977518 -1.03183 0)
(0.00933038 -1.0248 0)
(0.00867742 -1.01778 0)
(0.00771493 -1.0107 0)
(0.00594869 -1.00426 0)
(0.00239888 -1.00068 0)
(0.0623308 -1.11888 0)
(0.049302 -1.11571 0)
(0.0385919 -1.11131 0)
(0.0300219 -1.1061 0)
(0.0233015 -1.10036 0)
(0.0181116 -1.09425 0)
(0.0141582 -1.08787 0)
(0.0111871 -1.08127 0)
(0.00897974 -1.07447 0)
(0.00734616 -1.06752 0)
(0.00612779 -1.06043 0)
(0.00522634 -1.05322 0)
(0.00459969 -1.04587 0)
(0.00416698 -1.03836 0)
(0.00381674 -1.03084 0)
(0.00348395 -1.02345 0)
(0.00312789 -1.01623 0)
(0.00269709 -1.00927 0)
(0.00199035 -1.00347 0)
(0.000743593 -1.00055 0)
(0.0598571 -1.12948 0)
(0.0455125 -1.12461 0)
(0.0339985 -1.11849 0)
(0.0249653 -1.11175 0)
(0.0179769 -1.10473 0)
(0.0126195 -1.09759 0)
(0.00854492 -1.09039 0)
(0.00547501 -1.08314 0)
(0.00317935 -1.07586 0)
(0.00146526 -1.06853 0)
(0.00017905 -1.06117 0)
(-0.000783297 -1.05375 0)
(-0.00148684 -1.04623 0)
(-0.00196923 -1.0386 0)
(-0.00227242 -1.03099 0)
(-0.00241907 -1.02354 0)
(-0.00241359 -1.01629 0)
(-0.00224535 -1.0093 0)
(-0.00174159 -1.00348 0)
(-0.000664376 -1.00055 0)
(0.0559329 -1.1361 0)
(0.0404434 -1.12945 0)
(0.0282438 -1.12153 0)
(0.0189746 -1.11342 0)
(0.0119457 -1.10543 0)
(0.00662345 -1.09765 0)
(0.00258959 -1.09009 0)
(-0.000455079 -1.08269 0)
(-0.00274215 -1.07542 0)
(-0.00446338 -1.06823 0)
(-0.00577137 -1.0611 0)
(-0.00677419 -1.05399 0)
(-0.00754764 -1.04682 0)
(-0.00806582 -1.03957 0)
(-0.00834045 -1.03228 0)
(-0.00834675 -1.02508 0)
(-0.00802103 -1.01795 0)
(-0.007302 -1.01078 0)
(-0.00572305 -1.00429 0)
(-0.00232857 -1.00069 0)
(0.0510725 -1.13315 0)
(0.0337218 -1.12363 0)
(0.0210842 -1.11418 0)
(0.0120452 -1.10501 0)
(0.00539713 -1.09658 0)
(0.000427845 -1.08881 0)
(-0.00332821 -1.08169 0)
(-0.00613506 -1.07502 0)
(-0.00822653 -1.06873 0)
(-0.00981621 -1.0626 0)
(-0.0110813 -1.05653 0)
(-0.0121027 -1.05049 0)
(-0.0129362 -1.04429 0)
(-0.0135028 -1.03845 0)
(-0.0137803 -1.03246 0)
(-0.0137689 -1.02646 0)
(-0.0133427 -1.02036 0)
(-0.0124527 -1.01374 0)
(-0.0105367 -1.00653 0)
(-0.00513276 -1.00118 0)
(0.0408236 -1.08731 0)
(0.0233202 -1.07298 0)
(0.0120405 -1.06059 0)
(0.00430479 -1.05098 0)
(-0.00126039 -1.04387 0)
(-0.00539402 -1.03855 0)
(-0.00848921 -1.0345 0)
(-0.0108502 -1.03133 0)
(-0.0126893 -1.02881 0)
(-0.01414 -1.02675 0)
(-0.015269 -1.02507 0)
(-0.0161072 -1.02366 0)
(-0.0167659 -1.0224 0)
(-0.0173265 -1.02114 0)
(-0.0177862 -1.01977 0)
(-0.0180718 -1.01832 0)
(-0.0181123 -1.01689 0)
(-0.0182134 -1.01504 0)
(-0.0185761 -1.0097 0)
(-0.00921697 -1.0019 0)
(0.0189691 -0.777354 0)
(0.00903865 -0.750931 0)
(0.00192254 -0.7351 0)
(-0.00256096 -0.729595 0)
(-0.00583501 -0.730452 0)
(-0.00800747 -0.736248 0)
(-0.00989018 -0.74574 0)
(-0.011404 -0.758086 0)
(-0.0126251 -0.772626 0)
(-0.013633 -0.788892 0)
(-0.0144837 -0.806541 0)
(-0.0152 -0.825308 0)
(-0.0157725 -0.844973 0)
(-0.0162226 -0.865353 0)
(-0.0165421 -0.886304 0)
(-0.016639 -0.907883 0)
(-0.0163788 -0.93033 0)
(-0.0154139 -0.953004 0)
(-0.0114841 -0.972284 0)
(-0.00424272 -0.985017 0)
(-0.00170092 0.044598 0)
(0.000945607 0.0563553 0)
(0.00367948 0.058533 0)
(0.00462233 0.0517139 0)
(0.00380999 0.0396959 0)
(0.00197862 0.0270497 0)
(0.000534295 0.0170672 0)
(-0.000326241 0.0109878 0)
(-0.000941377 0.00911404 0)
(-0.00148689 0.0115916 0)
(-0.00254394 0.019048 0)
(-0.00283002 0.0298234 0)
(-0.00190759 0.0406976 0)
(-0.000429629 0.0490752 0)
(0.000564314 0.0525096 0)
(0.000668512 0.0519002 0)
(-0.000402308 0.0498946 0)
(-0.00258766 0.0488348 0)
(-0.00474133 0.04927 0)
(-0.00447066 0.0500892 0)
(-0.0028931 0.0494431 0)
(-0.0015791 0.0466713 0)
(-0.000749955 0.0413184 0)
(0.000304781 0.0311337 0)
(0.00166837 0.0165553 0)
(0.00311521 -0.00892316 0)
(0.00341604 -0.042196 0)
(0.00513848 -0.0816509 0)
(0.00923434 -0.129621 0)
(0.0144399 -0.184356 0)
(0.0201829 -0.245058 0)
(0.0245383 -0.309186 0)
(0.0264088 -0.372106 0)
(0.0266055 -0.431176 0)
(-0.0212067 0.0999498 0)
(-0.0100933 0.119248 0)
(0.00219408 0.127529 0)
(0.0122649 0.124178 0)
(0.0174598 0.110522 0)
(0.0172134 0.0903596 0)
(0.0129047 0.0692458 0)
(0.00647898 0.0526599 0)
(-0.000652826 0.0441823 0)
(-0.00749106 0.0445793 0)
(-0.0139815 0.0544603 0)
(-0.0163985 0.0680295 0)
(-0.0147223 0.0801604 0)
(-0.00986133 0.0885231 0)
(-0.00326879 0.0903005 0)
(0.00112981 0.0882339 0)
(0.00209617 0.0828023 0)
(0.00193519 0.0739369 0)
(0.00232538 0.0605879 0)
(0.00287351 0.0423383 0)
(0.00403993 0.0160274 0)
(0.00930501 -0.0203059 0)
(0.0188811 -0.0740835 0)
(0.0313142 -0.151125 0)
(0.0449295 -0.24 0)
(0.0571153 -0.336801 0)
(0.0671872 -0.436309 0)
(0.0752331 -0.534469 0)
(0.0807923 -0.626866 0)
(0.083169 -0.710489 0)
(0.082046 -0.782918 0)
(0.0776144 -0.842928 0)
(0.0706253 -0.890887 0)
(0.0623152 -0.927641 0)
(-0.0411738 0.149174 0)
(-0.0217019 0.167056 0)
(-0.000958612 0.173446 0)
(0.0172115 0.169776 0)
(0.0292817 0.157235 0)
(0.0333367 0.138012 0)
(0.0294142 0.115787 0)
(0.0193493 0.0956583 0)
(0.00587564 0.0825842 0)
(-0.00830344 0.0787113 0)
(-0.0211638 0.0835203 0)
(-0.0228686 0.0888893 0)
(-0.0182028 0.0903722 0)
(-0.0089735 0.0864872 0)
(0.000216591 0.0771556 0)
(0.00698921 0.0633547 0)
(0.0114545 0.0434374 0)
(0.0157312 0.0145829 0)
(0.0226065 -0.0269726 0)
(0.0349742 -0.0890502 0)
(0.0539343 -0.17437 0)
(0.0769173 -0.277253 0)
(0.100121 -0.390261 0)
(0.119925 -0.50568 0)
(0.134143 -0.617067 0)
(0.142834 -0.719302 0)
(0.14604 -0.808947 0)
(0.144278 -0.884014 0)
(0.138287 -0.943783 0)
(0.128743 -0.988334 0)
(0.116492 -1.01979 0)
(0.102723 -1.04115 0)
(0.0885497 -1.05502 0)
(0.0749498 -1.06395 0)
(-0.0586563 0.186341 0)
(-0.0299962 0.197974 0)
(-0.000747137 0.198405 0)
(0.0243734 0.192429 0)
(0.0415767 0.179259 0)
(0.0490567 0.161185 0)
(0.0459825 0.140545 0)
(0.0334345 0.12081 0)
(0.0146655 0.106086 0)
(-0.0053006 0.0983903 0)
(-0.0210587 0.0924197 0)
(-0.0204452 0.0827739 0)
(-0.0116803 0.0676375 0)
(0.0027526 0.0467906 0)
(0.0169665 0.0204156 0)
(0.0286339 -0.0143045 0)
(0.0417029 -0.064215 0)
(0.0607435 -0.135232 0)
(0.0866454 -0.228807 0)
(0.117369 -0.341516 0)
(0.148505 -0.464689 0)
(0.175746 -0.587804 0)
(0.195865 -0.702039 0)
(0.207173 -0.801702 0)
(0.209772 -0.884389 0)
(0.205006 -0.949643 0)
(0.194505 -0.998829 0)
(0.180007 -1.034 0)
(0.163178 -1.05832 0)
(0.14542 -1.07485 0)
(0.127479 -1.08628 0)
(0.109812 -1.09437 0)
(0.0929245 -1.09965 0)
(0.0773078 -1.10247 0)
(-0.0694971 0.201765 0)
(-0.0320734 0.204795 0)
(0.00323781 0.200737 0)
(0.0328262 0.191533 0)
(0.0538648 0.177377 0)
(0.0638697 0.159945 0)
(0.0613951 0.14082 0)
(0.0471191 0.122284 0)
(0.0248717 0.106428 0)
(0.00279117 0.0919482 0)
(-0.00853984 0.0728908 0)
(-0.00439044 0.0477533 0)
(0.0101059 0.0151839 0)
(0.0292937 -0.0252749 0)
(0.0510685 -0.077841 0)
(0.0765155 -0.149273 0)
(0.108052 -0.243229 0)
(0.145182 -0.356473 0)
(0.184062 -0.481682 0)
(0.219194 -0.608053 0)
(0.246049 -0.725097 0)
(0.262333 -0.825674 0)
(0.267781 -0.906569 0)
(0.263575 -0.968069 0)
(0.251814 -1.01278 0)
(0.234921 -1.04432 0)
(0.215121 -1.06643 0)
(0.194166 -1.08228 0)
(0.173154 -1.09439 0)
(0.15261 -1.10382 0)
(0.1327 -1.11101 0)
(0.113423 -1.1163 0)
(0.0949167 -1.11945 0)
(0.0776646 -1.12028 0)
(-0.0721098 0.191197 0)
(-0.0287861 0.18703 0)
(0.0105286 0.179166 0)
(0.0430466 0.16806 0)
(0.0664071 0.153917 0)
(0.0779704 0.137396 0)
(0.0758867 0.119566 0)
(0.0606708 0.101571 0)
(0.0375844 0.0826192 0)
(0.0186885 0.0594058 0)
(0.0139031 0.0275591 0)
(0.0250171 -0.0143693 0)
(0.0478204 -0.0682532 0)
(0.0783257 -0.137993 0)
(0.11537 -0.227367 0)
(0.158105 -0.336216 0)
(0.203775 -0.458983 0)
(0.247489 -0.586337 0)
(0.283622 -0.70731 0)
(0.308048 -0.812435 0)
(0.319415 -0.896997 0)
(0.318834 -0.960667 0)
(0.308769 -1.0062 0)
(0.292073 -1.03788 0)
(0.271367 -1.06013 0)
(0.248725 -1.07659 0)
(0.22557 -1.08972 0)
(0.202699 -1.10089 0)
(0.180369 -1.1106 0)
(0.158573 -1.11879 0)
(0.137299 -1.12534 0)
(0.116515 -1.13012 0)
(0.0962416 -1.13266 0)
(0.0770585 -1.13245 0)
(-0.0667537 0.161828 0)
(-0.0209366 0.152817 0)
(0.0197591 0.142136 0)
(0.0537119 0.12982 0)
(0.0786179 0.115544 0)
(0.0914439 0.099474 0)
(0.0899062 0.082013 0)
(0.0749778 0.0626924 0)
(0.0552782 0.0386387 0)
(0.0441394 0.00540606 0)
(0.0494689 -0.0418088 0)
(0.072269 -0.106118 0)
(0.109036 -0.189479 0)
(0.155301 -0.291644 0)
(0.206478 -0.40896 0)
(0.258318 -0.534721 0)
(0.304799 -0.658984 0)
(0.340517 -0.771292 0)
(0.361975 -0.863943 0)
(0.368902 -0.934537 0)
(0.363591 -0.985129 0)
(0.349416 -1.02014 0)
(0.329659 -1.0445 0)
(0.306915 -1.06245 0)
(0.282895 -1.07691 0)
(0.258556 -1.08951 0)
(0.234425 -1.10091 0)
(0.210745 -1.11126 0)
(0.187478 -1.12045 0)
(0.164451 -1.12827 0)
(0.14165 -1.13458 0)
(0.119186 -1.13924 0)
(0.0969286 -1.14143 0)
(0.075217 -1.14174 0)
(-0.058458 0.125051 0)
(-0.0115388 0.112762 0)
(0.03008 0.0995872 0)
(0.06506 0.085189 0)
(0.0911857 0.0694449 0)
(0.10514 0.0523066 0)
(0.104417 0.0333488 0)
(0.0922122 0.0105231 0)
(0.0808593 -0.0213566 0)
(0.0825042 -0.0691973 0)
(0.103001 -0.138523 0)
(0.14227 -0.229994 0)
(0.193853 -0.339445 0)
(0.251063 -0.460812 0)
(0.307047 -0.586265 0)
(0.355274 -0.705675 0)
(0.390251 -0.809187 0)
(0.409185 -0.891108 0)
(0.41281 -0.950955 0)
(0.404328 -0.992434 0)
(0.387732 -1.0209 0)
(0.366445 -1.04134 0)
(0.342796 -1.05741 0)
(0.318153 -1.07125 0)
(0.293139 -1.08387 0)
(0.267916 -1.0955 0)
(0.242815 -1.10596 0)
(0.218057 -1.11515 0)
(0.193562 -1.12299 0)
(0.169264 -1.12899 0)
(0.145229 -1.13352 0)
(0.121662 -1.13712 0)
(0.0983411 -1.13963 0)
(0.0742311 -1.13937 0)
(-0.0480369 0.0876119 0)
(-8.86568e-05 0.0727149 0)
(0.0423659 0.0566051 0)
(0.0783086 0.0390245 0)
(0.105478 0.0202878 0)
(0.120147 0.000388196 0)
(0.121276 -0.0219432 0)
(0.11644 -0.0519339 0)
(0.118792 -0.0977118 0)
(0.137985 -0.166398 0)
(0.176722 -0.259641 0)
(0.23065 -0.371655 0)
(0.29123 -0.494154 0)
(0.350014 -0.617807 0)
(0.399549 -0.732201 0)
(0.433971 -0.828311 0)
(0.451204 -0.901875 0)
(0.452775 -0.953982 0)
(0.442536 -0.989357 0)
(0.424734 -1.01375 0)
(0.402759 -1.03193 0)
(0.37867 -1.04699 0)
(0.353394 -1.06032 0)
(0.327499 -1.07221 0)
(0.301295 -1.08247 0)
(0.27512 -1.09002 0)
(0.249216 -1.09672 0)
(0.223564 -1.10153 0)
(0.198216 -1.10453 0)
(0.173081 -1.10598 0)
(0.148017 -1.10586 0)
(0.123322 -1.10427 0)
(0.0987738 -1.10215 0)
(0.0712552 -1.0981 0)
(-0.0358751 0.0519252 0)
(0.0135205 0.0342623 0)
(0.0572997 0.0146584 0)
(0.0944407 -0.00687345 0)
(0.122228 -0.0294583 0)
(0.137997 -0.0534077 0)
(0.144562 -0.0827739 0)
(0.152098 -0.125976 0)
(0.172127 -0.190961 0)
(0.210614 -0.280792 0)
(0.265112 -0.391272 0)
(0.327505 -0.512672 0)
(0.388311 -0.633828 0)
(0.438824 -0.743771 0)
(0.473136 -0.834123 0)
(0.489432 -0.901589 0)
(0.489879 -0.948269 0)
(0.478753 -0.979524 0)
(0.460445 -1.00123 0)
(0.438132 -1.01775 0)
(0.413782 -1.03138 0)
(0.388351 -1.04275 0)
(0.362251 -1.05099 0)
(0.335516 -1.05727 0)
(0.308208 -1.05959 0)
(0.280736 -1.0574 0)
(0.252947 -1.04941 0)
(0.224738 -1.03451 0)
(0.196467 -1.01228 0)
(0.168488 -0.982047 0)
(0.14116 -0.943858 0)
(0.114535 -0.900752 0)
(0.0875967 -0.859336 0)
(0.0566588 -0.822552 0)
(0.00216946 -0.0024586 0)
(0.00261534 -0.00842607 0)
(0.000706101 -0.0114387 0)
(-0.00161029 -0.00551428 0)
(-0.00338947 0.00862174 0)
(-0.00361157 0.0268348 0)
(0.00691815 -0.00369152 0)
(0.00638459 -0.00969721 0)
(-0.00291024 -0.00497564 0)
(-0.0160656 0.0144849 0)
(-0.0254512 0.042623 0)
(-0.0272392 0.0727957 0)
(0.0112153 -0.00285156 0)
(0.00429406 -0.0036083 0)
(-0.0179209 0.0154517 0)
(-0.0415447 0.049087 0)
(-0.0545333 0.0872382 0)
(-0.0537743 0.121822 0)
(0.0119438 -0.000887641 0)
(-0.00735899 0.00735698 0)
(-0.0462604 0.0420624 0)
(-0.0775971 0.0881139 0)
(-0.0885442 0.13115 0)
(-0.0804298 0.163855 0)
(0.00809192 0.000745819 0)
(-0.0327928 0.022445 0)
(-0.0872807 0.0720529 0)
(-0.119004 0.124168 0)
(-0.120867 0.16369 0)
(-0.101516 0.188169 0)
(-0.00396121 0.00340734 0)
(-0.0729474 0.0416528 0)
(-0.135005 0.0996936 0)
(-0.157276 0.147984 0)
(-0.144808 0.176094 0)
(-0.113114 0.191881 0)
(-0.025023 0.00766275 0)
(-0.122895 0.0611716 0)
(-0.18029 0.117572 0)
(-0.184773 0.153237 0)
(-0.15645 0.1673 0)
(-0.114099 0.167826 0)
(-0.0558054 0.0165075 0)
(-0.175052 0.0758564 0)
(-0.215066 0.121111 0)
(-0.198636 0.141123 0)
(-0.156606 0.142775 0)
(-0.107863 0.135736 0)
(-0.0989913 0.0273343 0)
(-0.219576 0.0804317 0)
(-0.235499 0.11074 0)
(-0.201418 0.117646 0)
(-0.150606 0.111563 0)
(-0.0986826 0.100786 0)
(-0.149548 0.0336045 0)
(-0.252005 0.0732351 0)
(-0.243668 0.0915303 0)
(-0.197831 0.0899186 0)
(-0.14172 0.0797945 0)
(-0.0878764 0.0670868 0)
(-0.0211168 0.0170864 0)
(0.030382 -0.00388036 0)
(0.0759527 -0.0276317 0)
(0.11418 -0.0534599 0)
(0.142892 -0.0806732 0)
(0.162556 -0.111768 0)
(0.179501 -0.153718 0)
(0.20394 -0.214983 0)
(0.243611 -0.299935 0)
(0.298902 -0.405946 0)
(0.36277 -0.523846 0)
(0.42494 -0.64129 0)
(0.476094 -0.746676 0)
(0.510226 -0.831941 0)
(0.525829 -0.894479 0)
(0.525444 -0.936972 0)
(0.513723 -0.965045 0)
(0.495159 -0.984334 0)
(0.472978 -0.998555 0)
(0.448788 -1.00875 0)
(0.422973 -1.01596 0)
(0.395419 -1.0177 0)
(0.365818 -1.01179 0)
(0.333567 -0.994096 0)
(0.298992 -0.961969 0)
(0.262724 -0.91433 0)
(0.224971 -0.84999 0)
(0.186569 -0.770095 0)
(0.148731 -0.676893 0)
(0.112732 -0.573393 0)
(0.078925 -0.462651 0)
(0.045009 -0.346986 0)
(0.00989114 -0.236344 0)
(-0.0114365 -0.145904 0)
(-0.00299459 -0.0173946 0)
(0.0510846 -0.0423859 0)
(0.0986261 -0.0706348 0)
(0.138429 -0.10134 0)
(0.17043 -0.135584 0)
(0.198462 -0.178319 0)
(0.230277 -0.237015 0)
(0.273503 -0.317043 0)
(0.330389 -0.417429 0)
(0.395709 -0.530166 0)
(0.459368 -0.643001 0)
(0.51141 -0.743891 0)
(0.545657 -0.824728 0)
(0.560878 -0.883211 0)
(0.559948 -0.922292 0)
(0.54773 -0.947484 0)
(0.528966 -0.96385 0)
(0.506479 -0.974097 0)
(0.481109 -0.979401 0)
(0.452605 -0.976118 0)
(0.419989 -0.96082 0)
(0.382316 -0.929603 0)
(0.339288 -0.879397 0)
(0.291498 -0.808955 0)
(0.240508 -0.721277 0)
(0.18811 -0.618594 0)
(0.136269 -0.506521 0)
(0.087245 -0.392025 0)
(0.0430443 -0.28277 0)
(0.0054471 -0.186295 0)
(-0.0234925 -0.107297 0)
(-0.0484567 -0.0450618 0)
(-0.0764743 0.00305028 0)
(-0.099624 0.00856004 0)
(0.0183086 -0.0514059 0)
(0.075291 -0.0807815 0)
(0.12539 -0.113965 0)
(0.168607 -0.151234 0)
(0.207462 -0.195671 0)
(0.247724 -0.253038 0)
(0.296 -0.32865 0)
(0.355407 -0.423068 0)
(0.422484 -0.529999 0)
(0.48814 -0.638019 0)
(0.542118 -0.735019 0)
(0.577653 -0.812597 0)
(0.59338 -0.868218 0)
(0.592476 -0.904642 0)
(0.580064 -0.926989 0)
(0.560636 -0.939192 0)
(0.536498 -0.944475 0)
(0.507825 -0.939052 0)
(0.473472 -0.920071 0)
(0.432146 -0.883399 0)
(0.383249 -0.826224 0)
(0.327288 -0.747979 0)
(0.266293 -0.6513 0)
(0.203473 -0.541793 0)
(0.142357 -0.427154 0)
(0.0864635 -0.315409 0)
(0.0391401 -0.215242 0)
(0.00250742 -0.133632 0)
(-0.0234665 -0.0729047 0)
(-0.0404597 -0.029663 0)
(-0.0518174 -0.000518421 0)
(-0.062306 0.018328 0)
(-0.0772413 0.0253259 0)
(-0.0761198 0.0132372 0)
(0.0431638 -0.0855186 0)
(0.103619 -0.119829 0)
(0.157677 -0.159187 0)
(0.20704 -0.20535 0)
(0.256003 -0.262305 0)
(0.310231 -0.334528 0)
(0.373104 -0.423457 0)
(0.442565 -0.524618 0)
(0.510811 -0.627986 0)
(0.567779 -0.721746 0)
(0.606024 -0.797103 0)
(0.623499 -0.850994 0)
(0.623081 -0.885434 0)
(0.610292 -0.904757 0)
(0.589398 -0.912679 0)
(0.562118 -0.909313 0)
(0.527992 -0.891654 0)
(0.485699 -0.856166 0)
(0.434341 -0.799672 0)
(0.374153 -0.721683 0)
(0.307147 -0.624945 0)
(0.23687 -0.515471 0)
(0.167939 -0.40158 0)
(0.105036 -0.292178 0)
(0.0519141 -0.195099 0)
(0.0109223 -0.115998 0)
(-0.0178357 -0.0567551 0)
(-0.0368992 -0.0140137 0)
(-0.0489436 0.0149848 0)
(-0.0556944 0.0321695 0)
(-0.05967 0.039468 0)
(-0.063897 0.0391139 0)
(-0.0688176 0.0302572 0)
(-0.0585511 0.00958377 0)
(0.0722654 -0.120303 0)
(0.137262 -0.160473 0)
(0.197271 -0.207636 0)
(0.255332 -0.264512 0)
(0.316067 -0.334346 0)
(0.383126 -0.418655 0)
(0.45561 -0.514514 0)
(0.527092 -0.613603 0)
(0.587962 -0.704819 0)
(0.630123 -0.778872 0)
(0.650614 -0.831788 0)
(0.651722 -0.864644 0)
(0.638663 -0.879999 0)
(0.61549 -0.884088 0)
(0.583646 -0.871922 0)
(0.542843 -0.842567 0)
(0.491915 -0.792195 0)
(0.430764 -0.719961 0)
(0.36107 -0.627752 0)
(0.286243 -0.521192 0)
(0.211006 -0.408379 0)
(0.140482 -0.298368 0)
(0.0791754 -0.199179 0)
(0.0299633 -0.116166 0)
(-0.00645724 -0.0515123 0)
(-0.0316611 -0.00345013 0)
(-0.0478104 0.030537 0)
(-0.0569984 0.0522725 0)
(-0.0603758 0.0641665 0)
(-0.059982 0.0673598 0)
(-0.0578079 0.0628731 0)
(-0.055749 0.0525995 0)
(-0.0536761 0.0360834 0)
(-0.0402833 0.0102527 0)
(0.106198 -0.156334 0)
(0.176987 -0.203557 0)
(0.245063 -0.259814 0)
(0.313655 -0.327761 0)
(0.385529 -0.408496 0)
(0.46154 -0.49977 0)
(0.536723 -0.595011 0)
(0.602264 -0.684257 0)
(0.649577 -0.758008 0)
(0.674324 -0.810993 0)
(0.677891 -0.843154 0)
(0.664934 -0.856895 0)
(0.639518 -0.855613 0)
(0.602739 -0.835754 0)
(0.55464 -0.795929 0)
(0.495202 -0.733984 0)
(0.42532 -0.650353 0)
(0.348033 -0.549492 0)
(0.267954 -0.438704 0)
(0.190396 -0.326948 0)
(0.12027 -0.222644 0)
(0.0611854 -0.132037 0)
(0.0148314 -0.058281 0)
(-0.0192656 -0.00145688 0)
(-0.0429429 0.0406829 0)
(-0.0574643 0.0699712 0)
(-0.0642999 0.0874845 0)
(-0.0650232 0.0958287 0)
(-0.0621076 0.0962592 0)
(-0.0556487 0.0897559 0)
(-0.0480211 0.077622 0)
(-0.0409672 0.0611999 0)
(-0.0335759 0.03984 0)
(-0.0205342 0.00977888 0)
(0.145866 -0.193504 0)
(0.224007 -0.249229 0)
(0.301453 -0.3155 0)
(0.380301 -0.392948 0)
(0.460448 -0.480267 0)
(0.539657 -0.572241 0)
(0.610358 -0.659924 0)
(0.663912 -0.734041 0)
(0.694569 -0.78836 0)
(0.701548 -0.821144 0)
(0.689506 -0.833869 0)
(0.661961 -0.828592 0)
(0.620602 -0.802807 0)
(0.565747 -0.754988 0)
(0.498387 -0.684662 0)
(0.420867 -0.593802 0)
(0.337352 -0.488288 0)
(0.253364 -0.376469 0)
(0.174385 -0.267138 0)
(0.104822 -0.167661 0)
(0.0473052 -0.0826022 0)
(0.00255513 -0.0137198 0)
(-0.0302211 0.0393419 0)
(-0.0526572 0.078226 0)
(-0.0662647 0.104214 0)
(-0.0713755 0.119489 0)
(-0.070067 0.124732 0)
(-0.0647759 0.122706 0)
(-0.0559144 0.11459 0)
(-0.0450132 0.101501 0)
(-0.0336124 0.0843869 0)
(-0.022645 0.0644435 0)
(-0.0112399 0.0407457 0)
(-0.000868926 0.00904706 0)
(0.192688 -0.23238 0)
(0.279237 -0.297172 0)
(0.365746 -0.372546 0)
(0.452186 -0.456352 0)
(0.535977 -0.545091 0)
(0.612297 -0.631617 0)
(0.672748 -0.706398 0)
(0.710271 -0.762595 0)
(0.722279 -0.797683 0)
(0.712575 -0.811233 0)
(0.683961 -0.803455 0)
(0.638694 -0.773882 0)
(0.577985 -0.721048 0)
(0.503736 -0.645572 0)
(0.419545 -0.550969 0)
(0.330621 -0.443919 0)
(0.243051 -0.333056 0)
(0.162384 -0.226644 0)
(0.0925329 -0.130921 0)
(0.0354407 -0.049269 0)
(-0.00882893 0.0174054 0)
(-0.0408297 0.0691954 0)
(-0.0620145 0.10614 0)
(-0.0739176 0.130477 0)
(-0.077952 0.142719 0)
(-0.0751719 0.145498 0)
(-0.0674367 0.141809 0)
(-0.0571406 0.132511 0)
(-0.0445985 0.1191 0)
(-0.0307489 0.102465 0)
(-0.016688 0.0832 0)
(-0.00282521 0.0621384 0)
(0.0115256 0.0381352 0)
(0.0183217 0.00788691 0)
(0.246878 -0.272696 0)
(0.341699 -0.345916 0)
(0.435358 -0.427852 0)
(0.525411 -0.513763 0)
(0.607647 -0.598693 0)
(0.675321 -0.674714 0)
(0.720299 -0.733614 0)
(0.738846 -0.771883 0)
(0.737368 -0.787948 0)
(0.705696 -0.780322 0)
(0.658291 -0.749003 0)
(0.592982 -0.694054 0)
(0.513047 -0.61654 0)
(0.42312 -0.521121 0)
(0.329297 -0.415072 0)
(0.238049 -0.306872 0)
(0.154909 -0.204117 0)
(0.0834952 -0.112053 0)
(0.0253235 -0.0331812 0)
(-0.0197149 0.0321366 0)
(-0.0520504 0.0832143 0)
(-0.0720284 0.120033 0)
(-0.0818989 0.142362 0)
(-0.0837129 0.153414 0)
(-0.0795171 0.15473 0)
(-0.0710265 0.149464 0)
(-0.059399 0.138771 0)
(-0.0458579 0.125325 0)
(-0.0310128 0.110011 0)
(-0.015362 0.0930281 0)
(0.00048915 0.074424 0)
(0.016499 0.0545426 0)
(0.0329109 0.0322572 0)
(0.0355673 0.00726616 0)
(0.307723 -0.313219 0)
(0.409408 -0.392916 0)
(0.5069 -0.477709 0)
(0.595807 -0.561328 0)
(0.671109 -0.638062 0)
(0.725084 -0.700677 0)
(0.752732 -0.743382 0)
(0.757751 -0.763318 0)
(0.729363 -0.75824 0)
(0.679766 -0.727315 0)
(0.611829 -0.673013 0)
(0.527603 -0.59626 0)
(0.432974 -0.502516 0)
(0.334764 -0.399533 0)
(0.239772 -0.295606 0)
(0.153478 -0.197701 0)
(0.079307 -0.110284 0)
(0.0186005 -0.0352473 0)
(-0.0288579 0.0275824 0)
(-0.0624616 0.0771893 0)
(-0.0829894 0.112639 0)
(-0.091499 0.13513 0)
(-0.090402 0.148284 0)
(-0.0850207 0.147758 0)
(-0.0746091 0.140768 0)
(-0.0617317 0.129339 0)
(-0.047933 0.116286 0)
(-0.0334008 0.102991 0)
(-0.0178392 0.0894706 0)
(-0.00124266 0.0751188 0)
(0.0159301 0.0594997 0)
(0.0336323 0.0426094 0)
(0.051367 0.0236661 0)
(0.0504099 0.00531033 0)
(0.373705 -0.351932 0)
(0.479622 -0.435267 0)
(0.576866 -0.519062 0)
(0.660158 -0.596776 0)
(0.724662 -0.662734 0)
(0.763496 -0.710768 0)
(0.775095 -0.735862 0)
(0.752175 -0.735932 0)
(0.704851 -0.708013 0)
(0.63495 -0.656223 0)
(0.548187 -0.582809 0)
(0.449976 -0.492732 0)
(0.348033 -0.39441 0)
(0.2495 -0.296063 0)
(0.15985 -0.204298 0)
(0.082356 -0.12307 0)
(0.0182784 -0.0538838 0)
(-0.0325559 0.00343034 0)
(-0.0696761 0.0486386 0)
(-0.0915843 0.0809689 0)
(-0.101498 0.103955 0)
(-0.10066 0.112685 0)
(-0.0922393 0.115177 0)
(-0.0787142 0.110773 0)
(-0.064606 0.10196 0)
(-0.0509716 0.0913785 0)
(-0.037547 0.08107 0)
(-0.0234185 0.0716335 0)
(-0.00769343 0.0624388 0)
(0.00976518 0.0524 0)
(0.0282688 0.0409078 0)
(0.0475141 0.0278344 0)
(0.065595 0.0131143 0)
(0.0580022 0.000928692 0)
(0.442753 -0.386667 0)
(0.549655 -0.470551 0)
(0.642766 -0.549947 0)
(0.716691 -0.619 0)
(0.76663 -0.672181 0)
(0.78591 -0.703283 0)
(0.774415 -0.711342 0)
(0.731942 -0.689452 0)
(0.663288 -0.642401 0)
(0.574952 -0.573862 0)
(0.47453 -0.489195 0)
(0.369585 -0.396539 0)
(0.267929 -0.30457 0)
(0.175184 -0.219805 0)
(0.0945562 -0.146113 0)
(0.0272369 -0.0848594 0)
(-0.0269254 -0.0359981 0)
(-0.067673 0.000625007 0)
(-0.0944688 0.0260453 0)
(-0.107966 0.0429367 0)
(-0.110012 0.0538529 0)
(-0.102304 0.0601409 0)
(-0.0888599 0.0619556 0)
(-0.0729742 0.0598769 0)
(-0.0575834 0.0550072 0)
(-0.0439516 0.0490654 0)
(-0.0312931 0.0436335 0)
(-0.0176363 0.0390466 0)
(-0.00153416 0.0344908 0)
(0.017064 0.0287692 0)
(0.037072 0.0212506 0)
(0.0577022 0.0120295 0)
(0.0748926 0.00240021 0)
(0.0600449 -0.00425668 0)
(0.512585 -0.415458 0)
(0.616747 -0.496868 0)
(0.701541 -0.569057 0)
(0.762376 -0.627412 0)
(0.794614 -0.666919 0)
(0.798228 -0.682402 0)
(0.760285 -0.67005 0)
(0.695646 -0.629597 0)
(0.608094 -0.56754 0)
(0.506413 -0.489253 0)
(0.399398 -0.403018 0)
(0.295076 -0.317569 0)
(0.199677 -0.239941 0)
(0.116537 -0.174268 0)
(0.0468327 -0.122188 0)
(-0.0096003 -0.0837391 0)
(-0.0533106 -0.0583638 0)
(-0.0849889 -0.0430424 0)
(-0.105776 -0.0328453 0)
(-0.115982 -0.023402 0)
(-0.115806 -0.0135098 0)
(-0.106284 -0.00365849 0)
(-0.0903726 0.00466936 0)
(-0.0720246 0.0100242 0)
(-0.0551371 0.0120361 0)
(-0.0413377 0.0117402 0)
(-0.0291604 0.0108001 0)
(-0.0155612 0.0100588 0)
(0.00131248 0.00906469 0)
(0.0212233 0.00664244 0)
(0.0427565 0.00228844 0)
(0.0645648 -0.00342956 0)
(0.0797344 -0.00749519 0)
(0.0562439 -0.00866804 0)
(0.580886 -0.436711 0)
(0.678764 -0.512951 0)
(0.752544 -0.576247 0)
(0.798899 -0.622677 0)
(0.812376 -0.648038 0)
(0.789876 -0.646691 0)
(0.730774 -0.615635 0)
(0.646657 -0.561618 0)
(0.54538 -0.490772 0)
(0.436962 -0.411255 0)
(0.33046 -0.33218 0)
(0.232706 -0.261053 0)
(0.147658 -0.202784 0)
(0.0766379 -0.159606 0)
(0.0193739 -0.131852 0)
(-0.02575 -0.118442 0)
(-0.0615712 -0.114585 0)
(-0.090639 -0.11259 0)
(-0.112495 -0.107281 0)
(-0.12482 -0.0972948 0)
(-0.126087 -0.0833413 0)
(-0.116601 -0.0668448 0)
(-0.0991156 -0.0499264 0)
(-0.078166 -0.0351368 0)
(-0.0585991 -0.0245951 0)
(-0.0430294 -0.018734 0)
(-0.0300878 -0.0159924 0)
(-0.0159091 -0.0142908 0)
(0.00197427 -0.0129929 0)
(0.0231601 -0.0131424 0)
(0.0460518 -0.0150754 0)
(0.0676928 -0.0173776 0)
(0.0775256 -0.0156738 0)
(0.0471061 -0.00863372 0)
(0.645731 -0.449433 0)
(0.734044 -0.518365 0)
(0.793437 -0.57175 0)
(0.821162 -0.606237 0)
(0.816902 -0.616973 0)
(0.768476 -0.598519 0)
(0.689634 -0.553834 0)
(0.590704 -0.491677 0)
(0.481855 -0.419317 0)
(0.373372 -0.346252 0)
(0.273295 -0.280667 0)
(0.186448 -0.228319 0)
(0.114725 -0.192385 0)
(0.0577223 -0.173643 0)
(0.0128378 -0.170448 0)
(-0.025011 -0.177006 0)
(-0.0603946 -0.183602 0)
(-0.0929657 -0.184947 0)
(-0.119338 -0.180234 0)
(-0.136099 -0.16936 0)
(-0.141012 -0.152433 0)
(-0.133692 -0.130293 0)
(-0.116128 -0.104971 0)
(-0.0926199 -0.0798126 0)
(-0.0687749 -0.058843 0)
(-0.0489464 -0.0449154 0)
(-0.0332937 -0.0377427 0)
(-0.0178454 -0.0341833 0)
(0.00107113 -0.0315164 0)
(0.023436 -0.0298857 0)
(0.0470308 -0.0293146 0)
(0.0662464 -0.0274583 0)
(0.0706144 -0.0203214 0)
(0.0358067 -0.00670595 0)
(0.705428 -0.453409 0)
(0.781512 -0.513747 0)
(0.825858 -0.556721 0)
(0.837909 -0.579337 0)
(0.806344 -0.575759 0)
(0.73645 -0.542778 0)
(0.641632 -0.490059 0)
(0.533588 -0.425691 0)
(0.423377 -0.358439 0)
(0.320575 -0.297388 0)
(0.231408 -0.249175 0)
(0.158675 -0.217967 0)
(0.102196 -0.205267 0)
(0.0585621 -0.209128 0)
(0.0209856 -0.22292 0)
(-0.0171311 -0.236722 0)
(-0.0565872 -0.245133 0)
(-0.0940126 -0.248195 0)
(-0.125716 -0.245626 0)
(-0.148218 -0.236331 0)
(-0.158788 -0.219351 0)
(-0.156129 -0.194583 0)
(-0.140973 -0.16332 0)
(-0.116382 -0.12873 0)
(-0.0876805 -0.0959337 0)
(-0.0609105 -0.0705495 0)
(-0.0393895 -0.0555236 0)
(-0.0210477 -0.0487333 0)
(-0.00106747 -0.0450177 0)
(0.021845 -0.0417127 0)
(0.0447162 -0.0382445 0)
(0.0608613 -0.0320479 0)
(0.0587759 -0.0204207 0)
(0.024911 -0.00430919 0)
(0.758741 -0.448909 0)
(0.820615 -0.500584 0)
(0.847728 -0.533552 0)
(0.839088 -0.543795 0)
(0.784881 -0.526262 0)
(0.697353 -0.484471 0)
(0.591584 -0.428928 0)
(0.480241 -0.367933 0)
(0.37419 -0.310721 0)
(0.28157 -0.265035 0)
(0.206625 -0.235953 0)
(0.149727 -0.225792 0)
(0.107353 -0.233 0)
(0.0716456 -0.250657 0)
(0.0340811 -0.268999 0)
(-0.00784569 -0.282522 0)
(-0.0511885 -0.291788 0)
(-0.0927888 -0.297393 0)
(-0.129638 -0.298422 0)
(-0.158506 -0.293102 0)
(-0.176294 -0.279461 0)
(-0.180748 -0.256263 0)
(-0.171204 -0.223596 0)
(-0.148878 -0.183414 0)
(-0.117369 -0.140183 0)
(-0.0827982 -0.100937 0)
(-0.051662 -0.0725275 0)
(-0.026675 -0.0574302 0)
(-0.00458149 -0.0510404 0)
(0.0182139 -0.0462591 0)
(0.0392822 -0.0402094 0)
(0.0514619 -0.0308234 0)
(0.0451415 -0.0168476 0)
(0.0160283 -0.00213681 0)
(0.805512 -0.43662 0)
(0.852334 -0.479391 0)
(0.861786 -0.502563 0)
(0.830754 -0.50194 0)
(0.756243 -0.47361 0)
(0.655307 -0.427826 0)
(0.543829 -0.373933 0)
(0.434439 -0.320642 0)
(0.337048 -0.27644 0)
(0.257902 -0.247483 0)
(0.198378 -0.237301 0)
(0.155973 -0.244119 0)
(0.122591 -0.26287 0)
(0.0877717 -0.283306 0)
(0.0467616 -0.299324 0)
(0.00168748 -0.311446 0)
(-0.044144 -0.321391 0)
(-0.0886491 -0.329192 0)
(-0.129625 -0.334023 0)
(-0.164455 -0.334065 0)
(-0.190055 -0.326556 0)
(-0.203326 -0.308994 0)
(-0.202278 -0.280058 0)
(-0.186409 -0.240301 0)
(-0.156851 -0.191949 0)
(-0.11762 -0.140987 0)
(-0.0758669 -0.0960294 0)
(-0.0392013 -0.0649801 0)
(-0.0106953 -0.049653 0)
(0.0127204 -0.0425056 0)
(0.0317604 -0.0349246 0)
(0.040759 -0.0244855 0)
(0.0329349 -0.0113138 0)
(0.00996192 -0.000535681 0)
(0.844603 -0.417974 0)
(0.874978 -0.452266 0)
(0.869424 -0.466402 0)
(0.814116 -0.455694 0)
(0.723506 -0.421403 0)
(0.613962 -0.375648 0)
(0.501597 -0.326976 0)
(0.398394 -0.283963 0)
(0.312743 -0.253641 0)
(0.248445 -0.241116 0)
(0.203777 -0.245649 0)
(0.171115 -0.263471 0)
(0.139791 -0.284519 0)
(0.101853 -0.301617 0)
(0.0577086 -0.314281 0)
(0.0109558 -0.325055 0)
(-0.0361631 -0.334934 0)
(-0.0822158 -0.34384 0)
(-0.125689 -0.351008 0)
(-0.164873 -0.355626 0)
(-0.197418 -0.355461 0)