/*--------------------------------*- C++ -*----------------------------------*\
| =========                 |                                                 |
| \\      /  F ield         | OpenFOAM: The Open Source CFD Toolbox           |
|  \\    /   O peration     | Version:  v2012                                 |
|   \\  /    A nd           | Website:  www.openfoam.com                      |
|    \\/     M anipulation  |                                                 |
\*---------------------------------------------------------------------------*/
FoamFile
{
    version     2.0;
    format      ascii;
    class       volScalarField;
    location    "565";
    object      k;
}
// * * * * * * * * * * * * * * * * * * * * * * * * * * * * * * * * * * * * * //

dimensions      [0 2 -2 0 0 0 0];


internalField   nonuniform List<scalar> 
6018
(
0.0121979
0.0140578
0.0158501
0.0175815
0.0192886
0.021026
0.0228553
0.024842
0.0270614
0.0296047
0.0325879
0.0361643
0.0405419
0.0460133
0.0530018
0.0621381
0.0743859
0.0912732
0.11535
0.151182
0.0172789
0.0191561
0.0212115
0.0234601
0.0259234
0.0286511
0.03171
0.0351786
0.0391501
0.0437362
0.0490734
0.0553292
0.0627112
0.0714798
0.0819487
0.0944974
0.109566
0.127618
0.149059
0.173897
0.031009
0.0338492
0.0368059
0.0399145
0.0432201
0.046778
0.0506501
0.0549049
0.059619
0.064879
0.0707837
0.0774481
0.085006
0.0936021
0.103412
0.114634
0.12748
0.142176
0.15896
0.178109
0.0412623
0.0442213
0.0472871
0.0505025
0.0539118
0.0575621
0.0615029
0.0657877
0.0704751
0.0756309
0.0813293
0.0876558
0.0947091
0.102607
0.111492
0.121536
0.132956
0.146031
0.161144
0.178841
0.0467168
0.0495161
0.0524483
0.0555519
0.0588633
0.06242
0.0662614
0.0704303
0.0749751
0.0799507
0.0854214
0.0914631
0.098168
0.10565
0.114055
0.123569
0.134436
0.146981
0.161649
0.179043
0.0479841
0.0505351
0.0532617
0.0561968
0.0593709
0.0628158
0.0665661
0.0706613
0.0751467
0.0800729
0.0855062
0.0915205
0.0982056
0.105674
0.11407
0.123577
0.13444
0.146983
0.161649
0.179043
0.0450878
0.0472992
0.0497425
0.0524445
0.0554322
0.0587348
0.062387
0.0664312
0.0709388
0.0759641
0.0815652
0.0878188
0.0948187
0.102679
0.111537
0.121563
0.13297
0.146037
0.161146
0.178841
0.0371483
0.0388071
0.0407569
0.0430212
0.0456209
0.0485823
0.0519844
0.0559003
0.0603566
0.0654217
0.0711801
0.077733
0.0852037
0.0937338
0.103497
0.114686
0.127509
0.14219
0.158965
0.17811
0.0229818
0.0237154
0.0247831
0.026194
0.0279799
0.0302195
0.0329235
0.0361146
0.0398676
0.0442817
0.0494839
0.0556354
0.0629372
0.071643
0.0820618
0.0945714
0.109609
0.12764
0.149068
0.173899
0.020419
0.0202339
0.0203694
0.0208622
0.0216636
0.0227434
0.0240918
0.0257286
0.0276948
0.0300557
0.0329078
0.036389
0.0406973
0.046118
0.0530696
0.0621792
0.0744085
0.0912838
0.115354
0.151182
0.00011478
0.0001388
0.00013712
0.000109253
6.78379e-05
3.31886e-05
1.38517e-05
6.00777e-06
4.2259e-06
8.25603e-06
2.70722e-05
6.32862e-05
0.000103006
0.000129612
0.000136195
0.000134853
0.000132238
0.000135914
0.000148916
0.000160021
0.000166102
0.000175147
0.000187754
0.000190573
0.000186262
0.000227744
0.000456569
0.000905993
0.00169582
0.00288665
0.00446152
0.00630649
0.00827167
0.0102559
0.000482156
0.000410431
0.000292606
0.000201707
0.000133023
8.42789e-05
5.24863e-05
3.41447e-05
2.83304e-05
5.67107e-05
0.000193404
0.000417569
0.000615516
0.000696672
0.000689813
0.000712092
0.000780203
0.000921201
0.00111009
0.00129099
0.00144777
0.00181144
0.00244205
0.00317444
0.00402575
0.00499801
0.00608593
0.00726298
0.00851876
0.00985002
0.0112368
0.012651
0.0140515
0.0155659
0.00121093
0.001141
0.000973646
0.00076374
0.000558096
0.000388867
0.000265775
0.000186971
0.000158666
0.00026408
0.000776191
0.00158368
0.00236201
0.00291892
0.00344605
0.00394545
0.00453786
0.00543848
0.00657581
0.0075496
0.00836549
0.00906814
0.00974916
0.0104808
0.0113468
0.0123742
0.0135863
0.0149969
0.0166238
0.0184683
0.0206085
0.0230006
0.0255599
0.0282366
0.00180006
0.00171011
0.00152408
0.0012956
0.0010369
0.00078879
0.000584238
0.000446088
0.000434317
0.000814197
0.00213777
0.00398
0.00574385
0.00755738
0.00903443
0.0105951
0.0122024
0.0136222
0.0144317
0.0146453
0.0146188
0.0146834
0.0150214
0.0157085
0.016767
0.018192
0.019967
0.0220592
0.0244473
0.0270508
0.0297879
0.0326061
0.0354615
0.0383423
0.00247083
0.00234743
0.00210469
0.00181015
0.00149496
0.00118975
0.000933916
0.000802538
0.00110361
0.00262387
0.00543888
0.00877085
0.0118586
0.0143755
0.0163612
0.0180565
0.0191234
0.0193282
0.0188068
0.0180767
0.0176512
0.0177422
0.0183979
0.0195851
0.0212341
0.0232588
0.0255669
0.0280674
0.0306793
0.033336
0.0359983
0.0386535
0.0413075
0.043984
0.00337512
0.00314154
0.00278865
0.00238074
0.00197217
0.00160655
0.00135886
0.00153335
0.00314126
0.00700804
0.0118254
0.0162501
0.0192239
0.0212836
0.0225925
0.0230005
0.0224658
0.0212557
0.0200298
0.0193009
0.0192724
0.0199357
0.0211897
0.0228997
0.0249271
0.0271475
0.0294612
0.0317979
0.0341165
0.0364029
0.0386647
0.0409229
0.043206
0.045548
0.00451916
0.00411726
0.00358626
0.00300553
0.00247829
0.00210121
0.00214421
0.00355836
0.00770129
0.0139345
0.0197189
0.0234071
0.0254137
0.0261347
0.0257396
0.024421
0.0226158
0.0210353
0.0201062
0.0199781
0.0205867
0.0217697
0.0233451
0.0251479
0.0270466
0.0289492
0.0308025
0.0325871
0.0343094
0.0359934
0.0376737
0.039386
0.0411599
0.0430445
0.00580918
0.00515238
0.00438676
0.00362942
0.00306169
0.0029777
0.00417854
0.00809949
0.0150946
0.02186
0.0265846
0.0287594
0.028942
0.0277584
0.0256316
0.0233438
0.0214591
0.020344
0.020071
0.0205216
0.0214906
0.0227664
0.0241714
0.0255753
0.0268953
0.0280908
0.0291563
0.030109
0.0309821
0.0318187
0.0326644
0.0335692
0.0345863
0.0357535
0.00710917
0.00618004
0.00518678
0.00437135
0.0041064
0.00518673
0.00881703
0.0152058
0.0227319
0.0285047
0.0312265
0.0311728
0.0292692
0.0265072
0.0237332
0.0215458
0.0202066
0.0197226
0.0199236
0.0205732
0.0214418
0.0223439
0.0231486
0.0237769
0.024191
0.0243859
0.0243745
0.0241872
0.0238651
0.0234569
0.0230311
0.0226733
0.0224791
0.0225531
0.00836915
0.00721454
0.00617784
0.0057136
0.00658448
0.00959043
0.0152132
0.0224739
0.0290496
0.032661
0.0327987
0.0305109
0.0272195
0.0239968
0.021468
0.0198626
0.019118
0.019024
0.0193215
0.0197716
0.0201877
0.0204428
0.0204658
0.0202295
0.0197426
0.0190406
0.0181786
0.0172122
0.0161988
0.0152029
0.0143057
0.0136743
0.0138072
0.0154987
6.89685e-07
3.74693e-06
9.11251e-06
1.65103e-05
3.78953e-05
7.60966e-05
3.21443e-06
1.28832e-05
7.57427e-05
0.000230888
0.000384212
0.000474974
7.18103e-06
4.39863e-05
0.000278581
0.000632828
0.000947542
0.00114563
1.02617e-05
0.000108855
0.000518957
0.00103299
0.00145521
0.00171374
1.30978e-05
0.000227759
0.000851703
0.0015437
0.00208205
0.00239712
3.3085e-05
0.000441667
0.00134096
0.00226931
0.00296571
0.00334222
0.000145129
0.000789653
0.00205421
0.00330683
0.00418788
0.00457974
0.000447487
0.00130857
0.00307359
0.00473993
0.00578095
0.00609384
0.000981588
0.00203535
0.00448107
0.00658569
0.007655
0.00772715
0.00164086
0.00299711
0.00630418
0.0087457
0.00964788
0.0093512
0.0096864
0.00848716
0.00787402
0.00844163
0.0108726
0.0155722
0.022085
0.0286434
0.0329292
0.0336512
0.0313935
0.0277529
0.0241285
0.0212717
0.0193977
0.0184034
0.0180443
0.0180547
0.0182075
0.0183414
0.0183664
0.018256
0.0180288
0.017716
0.0172676
0.0166721
0.0158639
0.0147663
0.0133206
0.0115071
0.00937488
0.0070776
0.00485766
0.00347944
0.0113097
0.0104938
0.0106954
0.012484
0.0162443
0.0217478
0.0277819
0.0323217
0.0337234
0.0319112
0.0282493
0.0243427
0.0211709
0.0190286
0.0178119
0.0172699
0.0171463
0.0172437
0.0174462
0.0177131
0.0180504
0.0184691
0.0189359
0.0193371
0.0194904
0.0192003
0.0182704
0.0166028
0.0142311
0.0112457
0.00762642
0.00419641
0.00174676
0.000643373
0.0135518
0.0133043
0.0144231
0.017249
0.0216936
0.0269186
0.0313202
0.0332273
0.0320495
0.0286764
0.024678
0.0212498
0.0188568
0.0174593
0.0168258
0.016722
0.016986
0.0175414
0.0183776
0.0194936
0.0208355
0.0222424
0.0234293
0.0240313
0.0237158
0.0222665
0.0197054
0.0163049
0.0125919
0.00921624
0.00640153
0.00407155
0.00195373
0.000457977
0.0162775
0.016721
0.018633
0.0220314
0.0263332
0.0303033
0.0324432
0.0318738
0.0289863
0.0251048
0.0215276
0.0189224
0.017379
0.0167221
0.0167464
0.0173195
0.0183901
0.0199407
0.0219148
0.0241327
0.0262476
0.0277713
0.0281961
0.0271712
0.0246528
0.0209498
0.0167457
0.0130365
0.00996967
0.00779263
0.0060331
0.00441095
0.00232236
0.000415663
0.0193782
0.0204212
0.0228092
0.0261631
0.0295257
0.0316339
0.031519
0.0291734
0.0255733
0.0219757
0.0192164
0.0175534
0.0169063
0.017113
0.0180613
0.0197024
0.0219838
0.0247494
0.0276561
0.0301591
0.0316196
0.0315035
0.0295966
0.0261104
0.0215993
0.017108
0.0134667
0.0108091
0.00877298
0.00722402
0.00596136
0.00467125
0.00259596
0.000394037
0.0225753
0.0239966
0.0264271
0.0291308
0.0310067
0.0311443
0.0292833
0.0260509
0.0225496
0.0197036
0.0179433
0.0173094
0.017701
0.0190266
0.021221
0.0241738
0.0276065
0.0310048
0.0336626
0.0348655
0.0341434
0.0314486
0.027152
0.0219416
0.0173993
0.013952
0.0112959
0.0092983
0.00782791
0.00672259
0.00581241
0.00475029
0.0027278
0.000355133
0.0255214
0.0269989
0.0290263
0.0306794
0.0308969
0.0293993
0.0265364
0.0232065
0.0203368
0.0184952
0.0178581
0.0184008
0.0200545
0.0227313
0.0262468
0.0302012
0.0339246
0.0365949
0.0374794
0.036187
0.0327744
0.0276936
0.0219184
0.0174758
0.0139643
0.0112946
0.00931184
0.00786564
0.00682917
0.00607978
0.00545684
0.00459965
0.00269003
0.000310053
0.0279917
0.0291987
0.0304448
0.0308356
0.029606
0.0270588
0.0239209
0.0210716
0.0191612
0.0184832
0.0191132
0.0210064
0.0240519
0.0279883
0.0323002
0.0361979
0.0387825
0.0393334
0.0375247
0.0334195
0.0272691
0.0215333
0.0169198
0.0133774
0.010716
0.00875964
0.00737807
0.0063999
0.00572843
0.00527651
0.00489159
0.00420568
0.002433
0.000300366
0.0298201
0.0304688
0.0307425
0.0299426
0.027667
0.0247046
0.021882
0.0198964
0.0191369
0.0197591
0.0217737
0.0250404
0.0292306
0.0337252
0.037644
0.0400484
0.0402435
0.037958
0.0332538
0.0260527
0.0201715
0.0155799
0.0121147
0.0095552
0.00775694
0.0064819
0.00558904
0.00497896
0.0045904
0.00436564
0.0041436
0.00360107
0.00205883
0.000291644
0.0309211
0.0308398
0.0301415
0.0283853
0.0255962
0.022778
0.0206757
0.0197689
0.0202917
0.0222868
0.0256119
0.02988
0.034387
0.0381821
0.0403106
0.0401157
0.0373837
0.0321513
0.0242822
0.0181324
0.013531
0.0102551
0.00793545
0.00633832
0.00526337
0.00451668
0.0039977
0.00365813
0.00348068
0.00341452
0.00333447
0.00295793
0.00164668
0.000271831
0.0313234
0.0304813
0.0289696
0.0265998
0.0237803
0.0215054
0.0203659
0.0206875
0.0225272
0.025746
0.0299281
0.0343064
0.0378698
0.0396542
0.0390457
0.0359125
0.0304163
0.0225931
0.0158737
0.0113049
0.0081207
0.00612021
0.00477697
0.00388548
0.00329604
0.00289571
0.00263242
0.00249449
0.00248193
0.00254513
0.00261314
0.00235695
0.00124274
0.000233827
0.0311447
0.0296247
0.02754
0.0249076
0.0224374
0.0209835
0.0209688
0.0225178
0.0254895
0.0294455
0.0335951
0.03688
0.0383125
0.0373104
0.0338215
0.0281867
0.0207507
0.0141178
0.00927999
0.00635272
0.0045404
0.00341468
0.00269537
0.00222109
0.00190205
0.0016936
0.00158658
0.00159009
0.0016993
0.00188599
0.0020321
0.0018275
0.000865918
0.000193093
0.0305439
0.0285014
0.0261136
0.0235442
0.0217084
0.0212387
0.0223277
0.024926
0.0285562
0.0324175
0.0354357
0.0365853
0.0352819
0.0315334
0.0258165
0.0188191
0.0125163
0.00795998
0.00509914
0.00352544
0.00264586
0.00210289
0.0017143
0.00141625
0.00117796
0.00101209
0.0009455
0.00100294
0.0011717
0.00141757
0.00156732
0.0013279
0.000544164
0.0001579
0.0296771
0.0272865
0.0247988
0.0225963
0.0215534
0.0220827
0.0241607
0.0273849
0.0309398
0.0337431
0.034736
0.0332935
0.0294447
0.023778
0.0172333
0.0110493
0.00680036
0.00430072
0.0030239
0.00238271
0.00200754
0.00173458
0.0014867
0.00123054
0.000972609
0.000760747
0.000653592
0.000688305
0.000851898
0.00105898
0.00113871
0.000887424
0.000327264
0.000114725
0.0286805
0.0261166
0.0237261
0.0220986
0.0219203
0.0233322
0.0260497
0.0292838
0.0319476
0.0329338
0.0315482
0.0277811
0.0222562
0.0159687
0.0101014
0.00593871
0.00372122
0.00271838
0.00225812
0.00200665
0.00183672
0.00169055
0.00152515
0.00130723
0.00103447
0.000759659
0.000569779
0.000524988
0.00061595
0.000747195
0.000765271
0.000552753
0.000188921
7.08314e-05
0.0276591
0.0250823
0.0229492
0.021981
0.0225974
0.0246835
0.0275456
0.0301189
0.0312468
0.0301188
0.0266331
0.0213877
0.015387
0.00973556
0.00550565
0.00332725
0.0024712
0.00212028
0.00194058
0.00183248
0.00176106
0.00170007
0.00161584
0.00146741
0.0012253
0.000911659
0.000618696
0.0004491
0.000430759
0.000491835
0.000481011
0.000327636
0.00010465
3.64767e-05
0.026673
0.0241717
0.0224382
0.0221511
0.0234265
0.025816
0.0282861
0.0296521
0.028963
0.0259469
0.0211159
0.0154501
0.0100079
0.00573006
0.00323769
0.00228222
0.00197284
0.00182975
0.00174645
0.00169922
0.00167927
0.00167409
0.00166024
0.00159996
0.00144516
0.00116784
0.000811485
0.000498144
0.000334774
0.000314625
0.000290137
0.00018825
5.55757e-05
1.58655e-05
0.0257553
0.0234023
0.0221488
0.0224705
0.0241957
0.0264741
0.0280921
0.0279666
0.0255892
0.0212891
0.0159783
0.0107399
0.00638939
0.00356203
0.00227098
0.0018638
0.00174022
0.00167123
0.00162562
0.00159961
0.00159575
0.00161144
0.00163511
0.00164267
0.00159152
0.00142595
0.00111667
0.00072002
0.000383701
0.000228551
0.000177564
0.000107492
2.87687e-05
6.27398e-06
0.0249259
0.0227916
0.0220473
0.0228469
0.0247281
0.0265181
0.0269998
0.0254074
0.021785
0.0169315
0.0118247
0.0073916
0.00421411
0.00251279
0.00188346
0.00170857
0.00165393
0.00161913
0.00158783
0.0015612
0.00154846
0.00155439
0.00157745
0.0016067
0.00161901
0.00156706
0.00138903
0.00105202
0.000619436
0.000265729
0.000133351
6.64999e-05
1.56493e-05
2.81288e-06
0.0241353
0.0223043
0.0220096
0.0231647
0.0249104
0.0259358
0.0252021
0.0224001
0.0180751
0.0132003
0.00869721
0.00518133
0.00301212
0.00204813
0.00175609
0.00168996
0.0016733
0.00165971
0.00163673
0.00160565
0.00157175
0.00154853
0.00154426
0.00155516
0.00157336
0.00157437
0.00150622
0.00130454
0.000938426
0.000489641
0.000169692
5.73318e-05
1.12244e-05
2.21778e-06
0.0234183
0.0219361
0.0220269
0.023344
0.0247084
0.0248255
0.0229838
0.0193579
0.0148062
0.0102775
0.00646504
0.00380656
0.00239613
0.00187738
0.00176041
0.00175456
0.00176408
0.00176575
0.00174905
0.00171569
0.00167105
0.00162224
0.00157412
0.00154714
0.00153432
0.00152829
0.00149924
0.00139093
0.00114047
0.000734548
0.00029102
7.59382e-05
1.39957e-05
3.41646e-06
0.0227707
0.0216271
0.022049
0.0233448
0.0241554
0.0233495
0.020624
0.0165547
0.0121025
0.00805876
0.0049355
0.00299667
0.00211503
0.00185972
0.00184073
0.00187355
0.00190241
0.00191542
0.00190439
0.00187058
0.00181766
0.00175104
0.00167771
0.0016082
0.00155277
0.0015096
0.00146759
0.00138958
0.00121477
0.00089092
0.000456384
0.000115162
2.0739e-05
5.76037e-06
0.0221978
0.0213872
0.0220474
0.023164
0.0233276
0.0216816
0.0183348
0.0141196
0.00994333
0.00642022
0.00392481
0.00254919
0.0020227
0.00192571
0.00196635
0.00202574
0.00206885
0.00209012
0.00208504
0.00205472
0.0020012
0.0019273
0.00183737
0.00173815
0.00164037
0.00155372
0.00147481
0.00138664
0.00124205
0.000978924
0.000576178
0.000172991
2.71735e-05
8.66564e-06
0.021703
0.0212088
0.0220059
0.0228232
0.0223183
0.0199712
0.016246
0.0120823
0.00825551
0.00523749
0.00328027
0.00232705
0.0020359
0.00203631
0.00211448
0.00219146
0.00224448
0.00227019
0.00227067
0.00224625
0.0021978
0.00212571
0.00203104
0.00191702
0.00179061
0.00166277
0.00154136
0.00142211
0.00127623
0.00104729
0.000683753
0.000254868
3.66945e-05
1.13418e-05
0.0212869
0.0210813
0.0219192
0.0223588
0.0212171
0.0183267
0.014415
0.0104148
0.00695634
0.00440126
0.00288621
0.00224204
0.00210627
0.00216723
0.00226826
0.00235531
0.00241389
0.00244189
0.00244709
0.00242973
0.00239003
0.00232657
0.00223722
0.00212115
0.00198124
0.00182562
0.00166562
0.00150761
0.00133989
0.00112047
0.000788167
0.000349385
5.09619e-05
1.29649e-05
0.0209422
0.020992
0.0217924
0.0218131
0.0200986
0.0168136
0.0128507
0.0090683
0.0059686
0.00382183
0.00265973
0.00223841
0.00220489
0.0023028
0.00241594
0.0025066
0.00256635
0.00259601
0.00260481
0.00259453
0.00256538
0.00251486
0.00243837
0.00233123
0.00219159
0.00202325
0.00183614
0.00164179
0.0014418
0.00121125
0.000892852
0.000452795
7.54314e-05
1.39169e-05
0.0206763
0.0209369
0.0216352
0.0212259
0.0190177
0.015464
0.0115369
0.00799127
0.005226
0.00342912
0.00254336
0.0022812
0.00231434
0.00243347
0.00255097
0.00264048
0.00269824
0.0027276
0.00273849
0.00273455
0.00271638
0.00268098
0.00262205
0.00253174
0.00240366
0.00223652
0.00203659
0.00181584
0.00158333
0.00132926
0.00100838
0.000565904
0.000117325
1.42248e-05
0.020478
0.0209084
0.0214541
0.0206295
0.0180103
0.0142865
0.0104458
0.00713657
0.00467383
0.00317034
0.00249801
0.00234855
0.00242426
0.00255387
0.00267012
0.00275485
0.002808
0.00283503
0.00284639
0.00284748
0.00283968
0.00281997
0.00278102
0.00271249
0.00260397
0.00244912
0.00224974
0.00201585
0.00175893
0.0014785
0.00114352
0.000694776
0.000183675
1.31956e-05
0.0203414
0.0208978
0.0212451
0.0200463
0.0170969
0.0132756
0.00954738
0.0064635
0.0042682
0.00300664
0.00249746
0.00242701
0.00252879
0.00266143
0.00277245
0.00284973
0.00289614
0.00291899
0.00292917
0.00293375
0.0029351
0.00293058
0.00291235
0.00286819
0.00278425
0.00264944
0.00246086
0.0022262
0.0019574
0.00165674
0.00130188
0.000842976
0.000278304
1.25267e-05
0.020253
0.0209007
0.021025
0.0194943
0.0162868
0.0124191
0.00881381
0.005938
0.00397465
0.00290993
0.00252431
0.00250848
0.00262495
0.00275553
0.00285859
0.00292657
0.00296461
0.00298164
0.00298904
0.00299544
0.00300439
0.003014
0.00301624
0.00299744
0.00294077
0.00283079
0.00265981
0.00243323
0.00216476
0.00185658
0.00148367
0.00101193
0.000404172
3.41334e-05
0.020202
0.0208989
0.020806
0.0189841
0.015581
0.0117022
0.00822046
0.00553215
0.00376662
0.00286015
0.00256719
0.00258831
0.00271161
0.00283677
0.00293019
0.00298768
0.0030162
0.00302601
0.00302913
0.00303562
0.00305047
0.00307282
0.00309476
0.00310144
0.00307326
0.00299067
0.00284122
0.00262768
0.00236703
0.00206622
0.0016915
0.00120154
0.000562114
0.000103472
0.0201811
0.020892
0.0205971
0.0185236
0.0149765
0.0111102
0.0077463
0.00522337
0.00362394
0.00284315
0.00261878
0.00266404
0.0027888
0.00290647
0.00298938
0.00303584
0.00305412
0.00305561
0.00305307
0.00305797
0.00307691
0.00311042
0.00315103
0.00318283
0.00318357
0.00312961
0.00300363
0.00280504
0.00255473
0.00227094
0.00191467
0.00140984
0.000751662
0.000258594
0.020183
0.0208838
0.0204051
0.018118
0.0144686
0.01063
0.00737382
0.00499375
0.00353149
0.00284907
0.00267454
0.00273459
0.0028572
0.00296626
0.00303849
0.00307389
0.00308164
0.00307406
0.00306472
0.00306645
0.00308772
0.00313074
0.00318876
0.00324502
0.0032746
0.00324974
0.00314806
0.00296465
0.00272327
0.00245961
0.00213806
0.00163254
0.00096855
0.000528376
0.0202004
0.0208776
0.0202354
0.0177703
0.0140513
0.0102489
0.0070886
0.00482924
0.00347807
0.00287118
0.00273176
0.00279969
0.00291778
0.00301784
0.0030797
0.00310447
0.00310185
0.00308482
0.00306785
0.00306513
0.00308716
0.00313809
0.00321216
0.00329191
0.00334985
0.00335401
0.00327677
0.00310807
0.00287261
0.0026237
0.00234943
0.00187325
0.00120265
0.000904409
0.0202286
0.0208766
0.0200921
0.0174814
0.0137185
0.00995621
0.00687908
0.00471913
0.00345562
0.00290495
0.0027889
0.00285954
0.00297156
0.00306271
0.00311489
0.0031298
0.00311734
0.00309095
0.00306593
0.00305793
0.00307958
0.00313711
0.00322587
0.00332787
0.00341316
0.00344563
0.0033925
0.00323799
0.00300555
0.0027648
0.00253978
0.00211959
0.00144031
0.00133136
0.0202643
0.0208831
0.019978
0.0172509
0.0134642
0.00974331
0.0067362
0.00465542
0.00345849
0.00294751
0.00284522
0.00291453
0.00301947
0.00310205
0.00314542
0.00315145
0.00312991
0.00309481
0.00306191
0.0030485
0.00306932
0.00313264
0.00323492
0.00335769
0.0034687
0.00352795
0.00349778
0.00335678
0.00312526
0.00288552
0.00270408
0.00235762
0.00166926
0.00174105
0.0203005
0.020899
0.0198951
0.0170773
0.0132832
0.00960316
0.00665314
0.00463249
0.003483
0.00299725
0.00290058
0.00296518
0.00306221
0.00313658
0.00317199
0.00317021
0.00314103
0.003098
0.00305809
0.00304009
0.00306063
0.00312969
0.00324466
0.00338657
0.00352102
0.00360449
0.00359503
0.00346623
0.0032345
0.0029903
0.00284312
0.00257786
0.00188364
0.0020845
0.0203339
0.0209251
0.0198444
0.0169591
0.0131707
0.00953035
0.00662511
0.00464676
0.00352711
0.0030536
0.00295529
0.00301208
0.00310034
0.00316652
0.00319457
0.00318601
0.00315028
0.00310109
0.00305618
0.00303568
0.00305766
0.00313335
0.00326065
0.00341994
0.00357489
0.00367891
0.00368657
0.00356763
0.00333517
0.00308417
0.00295928
0.00277586
0.00208394
0.00233187
0.0203653
0.0209622
0.0198263
0.0168939
0.0131229
0.0095208
0.00664906
0.0046965
0.00359023
0.00311724
0.0030106
0.00305631
0.00313435
0.00319154
0.00321211
0.00319757
0.0031569
0.00310421
0.00305778
0.00303832
0.00306475
0.00314885
0.00328854
0.00346332
0.00363509
0.00375485
0.00377458
0.00366187
0.00342835
0.0031715
0.00305712
0.00294958
0.00227393
0.00246497
0.0203952
0.0210103
0.0198405
0.0168793
0.0131359
0.00957108
0.00672317
0.00478191
0.00367244
0.00319226
0.00307126
0.00310081
0.00316444
0.00321027
0.003224
0.00320455
0.00316099
0.00310776
0.00306353
0.00304925
0.00308421
0.00318002
0.00333366
0.00352294
0.00370767
0.00383675
0.00386111
0.00374962
0.00351458
0.00325552
0.00314609
0.00309933
0.00244909
0.00248531
0.0204245
0.0210693
0.0198852
0.0169116
0.0132024
0.00967346
0.00684355
0.00490758
0.0037915
0.00328997
0.00314256
0.00314809
0.00319234
0.003226
0.00323253
0.0032087
0.00316385
0.00311253
0.00307396
0.00306914
0.00311721
0.00322888
0.00339919
0.00360339
0.0037987
0.00393204
0.00395374
0.00383484
0.00359302
0.00333445
0.00323642
0.00323122
0.00261214
0.00241241
0.0204536
0.0211326
0.0199483
0.0169785
0.0133219
0.00983768
0.00702663
0.00508785
0.00395152
0.00341464
0.00322928
0.00320273
0.00322313
0.0032426
0.0032404
0.00321264
0.00316793
0.0031211
0.00309199
0.00310148
0.00316798
0.00330025
0.0034902
0.00370953
0.00391241
0.00404401
0.00405494
0.00392013
0.00366556
0.00340709
0.00332476
0.00336084
0.00275066
0.00227323
0.0204836
0.0212007
0.02003
0.0170814
0.0134912
0.0100615
0.00727248
0.00532541
0.00415744
0.00357274
0.00333842
0.00327082
0.00326332
0.00326558
0.00325276
0.003221
0.00317774
0.00313835
0.0031231
0.0031525
0.0032433
0.00340098
0.00361301
0.00384655
0.00405241
0.00417445
0.00416494
0.00400483
0.00373165
0.00347326
0.00341009
0.00348721
0.00287622
0.00208747
0.0205177
0.0212767
0.0201312
0.0172218
0.0137012
0.0103392
0.00758142
0.0056241
0.00441606
0.00377303
0.00347933
0.0033625
0.00332185
0.00330246
0.00327715
0.00324111
0.00320063
0.00317223
0.00317608
0.00323159
0.0033527
0.00354
0.00377503
0.00401968
0.00422141
0.00432363
0.00428204
0.00408651
0.00378955
0.00353231
0.00349074
0.00359542
0.00298377
0.00186985
0.0205601
0.0213642
0.0202531
0.0173985
0.0139507
0.0106696
0.00795444
0.00598883
0.00473557
0.00402589
0.00366266
0.00349016
0.00341078
0.0033649
0.0033249
0.00328415
0.00324797
0.00323489
0.00326388
0.00335202
0.00350875
0.00372807
0.00398429
0.00423358
0.00442053
0.00448949
0.00440211
0.00416069
0.00383631
0.00358311
0.00356407
0.00367182
0.00306599
0.00163132
0.0206164
0.0214679
0.0203977
0.01761
0.0142404
0.0110521
0.00839206
0.00642399
0.00512368
0.00434075
0.00390222
0.00366907
0.00354574
0.00346913
0.00341214
0.00336633
0.00333641
0.00334395
0.00340457
0.0035313
0.00372696
0.00397722
0.00424844
0.00449109
0.00464798
0.00466656
0.00451776
0.00422056
0.0038677
0.00362246
0.00362599
0.00371445
0.0031124
0.00138438
0.0206939
0.021594
0.0205678
0.0178559
0.0145738
0.011482
0.00888911
0.00692973
0.00558253
0.00472644
0.00421372
0.00391775
0.00374617
0.00363611
0.00356054
0.00351
0.00348936
0.0035236
0.00362182
0.00379086
0.00402473
0.00429937
0.00457295
0.00479136
0.00489738
0.00484458
0.00461765
0.00425688
0.00387886
0.00364845
0.00367103
0.00372751
0.00311028
0.00114299
0.0208016
0.0217502
0.0207677
0.0181377
0.0149559
0.0119563
0.00943221
0.00749099
0.00611285
0.00519638
0.00461547
0.00425814
0.00403721
0.00389258
0.0037981
0.00374445
0.00373939
0.0038051
0.00394407
0.00415429
0.00441884
0.00470331
0.00495838
0.00512714
0.0051554
0.00500701
0.00468599
0.0042585
0.0038658
0.00365822
0.00368899
0.00370202
0.00304427
0.000908192
0.0209455
0.0219459
0.0210039
0.0184595
0.0153827
0.0124784
0.010029
0.00812049
0.00672902
0.00576727
0.00512839
0.00471557
0.00444792
0.00427036
0.00415877
0.00410514
0.00412368
0.00422313
0.00440085
0.00464319
0.00492109
0.00519032
0.00539603
0.0054813
0.00539918
0.0051298
0.00470297
0.00421441
0.00381733
0.00364741
0.00367082
0.00362583
0.00289795
0.000690519
0.0211372
0.022192
0.0212853
0.018824
0.0158531
0.0130554
0.0106934
0.00883346
0.00744719
0.00645818
0.00577607
0.00531861
0.00501116
0.00480586
0.00468159
0.00463211
0.00467747
0.00481036
0.00501701
0.00527094
0.00553183
0.00574802
0.00586241
0.0058224
0.005594
0.00518149
0.00464745
0.00411695
0.00374342
0.00361722
0.00361266
0.00348272
0.00266114
0.000499192
0.0213972
0.0224994
0.0216235
0.0192341
0.0163776
0.0137007
0.0114414
0.00964781
0.00828742
0.00729226
0.00658611
0.00610001
0.00576423
0.00554014
0.00540997
0.00536906
0.00544075
0.00559514
0.00580551
0.00603367
0.00623116
0.00634263
0.00631313
0.00610052
0.0056923
0.00512638
0.00450268
0.00396624
0.00364482
0.00355361
0.00348953
0.00324478
0.00232624
0.000419948
0.021749
0.0228884
0.0220305
0.0197066
0.0169744
0.0144347
0.0122959
0.010589
0.0092776
0.00830055
0.00759353
0.00709899
0.00675007
0.00651783
0.00638767
0.00635659
0.00643999
0.00658354
0.0067506
0.00689583
0.00696706
0.00690943
0.00667642
0.00624553
0.00563765
0.00493308
0.0042641
0.00376937
0.00351665
0.00342996
0.00325974
0.00287153
0.00186932
0.000377327
0.0222248
0.0233804
0.0225435
0.0202685
0.0176718
0.0152885
0.0132915
0.0116948
0.010458
0.00952584
0.00884314
0.00836035
0.00801126
0.00777557
0.00764176
0.00762083
0.00766405
0.00773361
0.0077864
0.00777355
0.00764212
0.00734329
0.00684943
0.00617174
0.00537763
0.00458857
0.00394273
0.00353127
0.0033356
0.00319202
0.00286066
0.0023093
0.0012392
0.000319344
0.0228735
0.0240234
0.0232074
0.0209622
0.0185157
0.0163118
0.0144807
0.0130192
0.0118831
0.0110208
0.0103826
0.00991806
0.00956507
0.00930977
0.00914125
0.00906257
0.00900108
0.00891956
0.0087747
0.00851794
0.00810098
0.0074936
0.00670512
0.00579812
0.00488804
0.00410818
0.00355353
0.00323356
0.00304121
0.00275971
0.00222467
0.00156515
0.00067809
0.000248756
0.0237779
0.0248947
0.0240976
0.0218608
0.0195839
0.0175829
0.0159396
0.014633
0.0136138
0.0128296
0.0122282
0.0117471
0.0113493
0.0110236
0.01076
0.0105284
0.0102655
0.0099351
0.00949464
0.00889996
0.00812204
0.00717477
0.006127
0.00509154
0.00419436
0.00352264
0.00308696
0.00281455
0.00253997
0.00206768
0.00138638
0.000666627
0.000312036
0.000184097
0.0250709
0.0261243
0.0253475
0.0230906
0.0209998
0.0192112
0.0177541
0.0165872
0.0156511
0.0148882
0.014239
0.0136541
0.0131284
0.0126488
0.0121972
0.0116979
0.0111222
0.0104325
0.00959313
0.00858649
0.00744009
0.00623515
0.0050877
0.00410733
0.00335834
0.00283861
0.0024849
0.00217924
0.00176395
0.00117017
0.000540046
0.000252538
0.00013959
0.000111971
0.0270728
0.0279737
0.0271967
0.0248341
0.0228735
0.0212065
0.0198206
0.0186559
0.0176459
0.0167431
0.0158942
0.0151049
0.014362
0.0136353
0.0128539
0.0119777
0.0109805
0.00984485
0.0085797
0.00723713
0.00591049
0.00470949
0.00371683
0.00295783
0.00240841
0.00200812
0.00166907
0.00129092
0.00082722
0.000362204
0.000157593
9.98903e-05
5.87556e-05
4.9477e-05
0.0301381
0.0306559
0.0297058
0.0268059
0.024649
0.0227841
0.0211777
0.0197426
0.018414
0.0171915
0.0160575
0.0149904
0.0139591
0.0128423
0.0116348
0.0103435
0.00897648
0.00756707
0.00617816
0.00489396
0.00378811
0.00290578
0.0022401
0.0017335
0.00134346
0.00101836
0.000710224
0.000390166
0.000192484
8.59736e-05
4.7698e-05
3.64044e-05
2.127e-05
1.48664e-05
0.0358291
0.0327414
0.0304674
0.0258394
0.0226273
0.0200633
0.0179756
0.016208
0.0146486
0.0132507
0.0119785
0.0107692
0.00955382
0.00838334
0.0072681
0.00620004
0.00517835
0.0042048
0.00328974
0.00248383
0.00182804
0.00128665
0.000862154
0.000547543
0.000322149
0.000172348
9.94163e-05
5.3902e-05
2.72686e-05
1.41674e-05
1.05749e-05
9.16492e-06
5.31997e-06
2.891e-06
0.027013
0.0179855
0.0118055
0.00848255
0.00794025
0.00790525
0.00784681
0.00785819
0.00791483
0.00796207
0.00796751
0.0079089
0.00775742
0.00746655
0.00699694
0.00630845
0.00536438
0.00417017
0.00283391
0.00156501
0.000649458
0.000193151
4.04899e-05
3.90282e-05
3.81814e-05
3.1771e-05
2.52983e-05
1.85124e-05
1.48451e-05
1.40524e-05
1.22708e-05
7.33307e-06
2.2868e-06
2.94009e-07
0.00227992
0.00420551
0.00847284
0.0110562
0.0116364
0.0109522
0.0028546
0.00572235
0.0109616
0.0134592
0.0136429
0.0126347
0.00333129
0.00744723
0.013491
0.0157549
0.0156094
0.0145127
0.00371933
0.00930493
0.0159444
0.0179297
0.0176774
0.0167566
0.00405205
0.011237
0.0181903
0.0200731
0.0199596
0.0194454
0.00437695
0.0131077
0.0202748
0.0222852
0.0224042
0.0222741
0.00468458
0.0148148
0.0223324
0.0245447
0.0249121
0.0249916
0.0049321
0.0164643
0.0243528
0.0267594
0.0273235
0.0274247
0.00512672
0.0180752
0.026298
0.0288044
0.0293676
0.0294412
0.00528091
0.0196424
0.0281561
0.0307193
0.031056
0.0309334
0.00539217
0.0211458
0.0298514
0.0322257
0.0323167
0.0318583
0.00542216
0.0225542
0.0314432
0.0334079
0.0331414
0.0322455
0.00534897
0.0237643
0.0326414
0.0342493
0.0335541
0.0321772
0.00529503
0.0249742
0.0335714
0.0347703
0.03361
0.0317601
0.00527477
0.025867
0.0342293
0.0350042
0.0333801
0.0311037
0.00572695
0.026628
0.0346524
0.0349971
0.0329378
0.0303048
0.00644609
0.027235
0.0348731
0.0347976
0.0323487
0.029437
0.00720103
0.027664
0.0349177
0.0344502
0.0316664
0.0285512
0.00797009
0.0279185
0.0348096
0.0339922
0.0309303
0.02768
0.00874973
0.0279993
0.0345731
0.0334528
0.0301663
0.0268366
0.00949056
0.0279424
0.0342326
0.0328551
0.0293929
0.0260327
0.0101999
0.0277661
0.0338053
0.032216
0.0286245
0.0252605
0.0108831