/*--------------------------------*- C++ -*----------------------------------*\
| =========                 |                                                 |
| \\      /  F ield         | OpenFOAM: The Open Source CFD Toolbox           |
|  \\    /   O peration     | Version:  v2012                                 |
|   \\  /    A nd           | Website:  www.openfoam.com                      |
|    \\/     M anipulation  |                                                 |
\*---------------------------------------------------------------------------*/
FoamFile
{
    version     2.0;
    format      ascii;
    class       volScalarField;
    location    "565";
    object      nut;
}
// * * * * * * * * * * * * * * * * * * * * * * * * * * * * * * * * * * * * * //

dimensions      [0 2 -1 0 0 0 0];


internalField   nonuniform List<scalar> 
6018
(
5.23853e-05
6.01689e-05
6.76201e-05
7.47736e-05
8.17835e-05
8.88755e-05
9.62963e-05
0.000104303
0.000113183
0.000123277
0.00013501
0.000148923
0.000165734
0.000186418
0.00021233
0.000245389
0.000288347
0.000345229
0.00042212
0.000528665
0.000236821
0.00027129
0.000308704
0.000348969
0.000391605
0.000436478
0.000484264
0.000535917
0.00059261
0.000655735
0.000726973
0.000808446
0.000902916
0.00101395
0.00114642
0.0013075
0.00150801
0.0017657
0.00211665
0.00264287
0.000847503
0.000949422
0.00104889
0.00114528
0.00123881
0.0013306
0.0014223
0.00151566
0.00161242
0.00171429
0.00182291
0.00194
0.00206743
0.00220688
0.00235979
0.00252717
0.00270893
0.00290254
0.00310108
0.00328913
0.00161123
0.00172788
0.00183462
0.00193331
0.00202601
0.00211477
0.00220135
0.00228719
0.00237341
0.00246086
0.00255008
0.00264136
0.00273461
0.00282955
0.0029255
0.00302115
0.00311466
0.00320376
0.00328613
0.00336001
0.00211446
0.00220444
0.0022864
0.00236267
0.00243504
0.00250486
0.00257307
0.0026403
0.0027069
0.00277304
0.00283871
0.00290372
0.00296779
0.00303058
0.00309175
0.00315094
0.00320795
0.0032628
0.00331592
0.00336814
0.00224455
0.00230506
0.00236352
0.00242132
0.00247929
0.00253791
0.00259744
0.00265796
0.00271943
0.00278152
0.00284427
0.00290727
0.00296999
0.0030319
0.00309249
0.00315133
0.00320813
0.00326287
0.00331594
0.00336815
0.00199025
0.00202585
0.00206595
0.00211085
0.00216056
0.00221503
0.00227423
0.00233815
0.00240863
0.00248508
0.00256647
0.0026522
0.00274163
0.00283399
0.00292817
0.00302264
0.0031154
0.00320407
0.00328623
0.00336002
0.00133231
0.00134335
0.00136328
0.00139126
0.00142654
0.00146883
0.00152183
0.00158755
0.00166391
0.00175081
0.0018486
0.00195799
0.0020799
0.00221531
0.00236529
0.00253058
0.00271087
0.0029035
0.00310145
0.0032892
0.000455876
0.000453337
0.000457658
0.000467271
0.000481088
0.000503608
0.000534898
0.000573937
0.000620985
0.000676784
0.000742534
0.000819956
0.000911379
0.00102009
0.00115082
0.00131056
0.00151001
0.00176689
0.00211732
0.00264311
8.64026e-05
8.56475e-05
8.62003e-05
8.82085e-05
9.14673e-05
9.58437e-05
0.000101286
0.000107858
0.000115705
0.000125059
0.00013626
0.000149791
0.000166326
0.000186811
0.000212579
0.000245536
0.000288425
0.000345265
0.000422131
0.000528666
5.04202e-07
6.09689e-07
6.02313e-07
4.79931e-07
2.98024e-07
1.45813e-07
6.08593e-08
2.63963e-08
1.85674e-08
3.62744e-08
1.18942e-07
2.7803e-07
4.52495e-07
5.69343e-07
5.98251e-07
5.92358e-07
5.80872e-07
5.97015e-07
6.54111e-07
7.02879e-07
7.29578e-07
7.69294e-07
8.24649e-07
8.37023e-07
8.18096e-07
1.00022e-06
2.0043e-06
3.97382e-06
7.42693e-06
1.26137e-05
1.94375e-05
2.73806e-05
3.57816e-05
4.42026e-05
1.33567e-05
1.09544e-05
7.08967e-06
4.33025e-06
2.66023e-06
1.66892e-06
1.08064e-06
7.5659e-07
6.89406e-07
1.45393e-06
5.19162e-06
1.1415e-05
1.67649e-05
1.85716e-05
1.78411e-05
1.76281e-05
1.89344e-05
2.24822e-05
2.68532e-05
3.05608e-05
3.19395e-05
3.451e-05
3.99245e-05
4.57095e-05
5.23755e-05
6.0555e-05
7.05194e-05
8.21913e-05
9.58189e-05
0.000111878
0.00013067
0.000152464
0.000177164
0.000205224
7.34101e-05
7.13076e-05
5.9764e-05
4.11426e-05
2.61141e-05
1.67359e-05
1.13693e-05
8.59857e-06
8.4346e-06
1.62649e-05
5.35735e-05
0.000114755
0.000169878
0.000200591
0.000219517
0.000216484
0.000213785
0.000216866
0.000209779
0.000198526
0.000188376
0.000182502
0.000182638
0.000188782
0.000201376
0.000220959
0.000248321
0.000284469
0.000330904
0.000389247
0.000461284
0.000546503
0.000642108
0.000743797
0.000121964
0.000127952
0.000122761
0.000103749
7.72501e-05
5.41066e-05
3.86057e-05
3.05654e-05
3.32812e-05
7.12394e-05
0.000201271
0.000368962
0.000495541
0.000570056
0.000562636
0.000506675
0.000463772
0.000432465
0.000399864
0.000370303
0.000350502
0.000344488
0.000353677
0.00037854
0.000419784
0.000478549
0.000556061
0.000653032
0.000769385
0.000902392
0.00104678
0.001196
0.00134293
0.00148232
0.000172216
0.000183779
0.00018127
0.000165531
0.000137365
0.000105392
8.00834e-05
6.96629e-05
0.000101847
0.000251439
0.000483129
0.000676838
0.00077939
0.000785375
0.000722156
0.000638671
0.000589836
0.000563632
0.00053503
0.000506902
0.000500918
0.000519335
0.000562978
0.000632179
0.000726695
0.000845152
0.000984366
0.00113902
0.00130206
0.00146572
0.00162272
0.00176767
0.0018977
0.00201276
0.00025193
0.000267157
0.000261747
0.00023894
0.000203409
0.000163642
0.000134609
0.000149486
0.000297972
0.000585354
0.000837437
0.000970468
0.000958314
0.000855615
0.000779137
0.000734436
0.00071372
0.000675696
0.000643736
0.000640611
0.000669604
0.000730729
0.00082228
0.000940737
0.00108043
0.0012337
0.00139171
0.00154585
0.00168917
0.0018173
0.0019288
0.00202466
0.00210712
0.00217933
0.000377954
0.000394689
0.000377908
0.000334348
0.000280694
0.000233707
0.000227243
0.000345563
0.000636016
0.000950068
0.00111175
0.00107442
0.000993275
0.000927903
0.000889679
0.000857149
0.000794501
0.000758797
0.000757109
0.00079219
0.000862202
0.000961902
0.00108346
0.00121709
0.00135223
0.00147924
0.001591
0.0016839
0.0017578
0.00181524
0.00185997
0.00189619
0.00192769
0.00195798
0.000557091
0.000564265
0.000521076
0.000445243
0.000372646
0.00034286
0.000425781
0.000681836
0.00102501
0.00121529
0.00120661
0.00114413
0.00108957
0.00105849
0.000968073
0.000894012
0.000851117
0.00084588
0.000878711
0.000944813
0.00103499
0.00113734
0.00123921
0.00132924
0.00139922
0.00144516
0.0014672
0.0014685
0.00145389
0.0014285
0.00139787
0.00136809
0.00134581
0.00133305
0.00077772
0.000761177
0.000674753
0.000567909
0.000503551
0.000553016
0.000765587
0.0010667
0.00132123
0.00137054
0.00131662
0.00126669
0.00118113
0.00106681
0.000976608
0.000921892
0.000906219
0.000927359
0.000976865
0.00104184
0.00110738
0.00115956
0.00118796
0.00118721
0.00115709
0.00110139
0.00102622
0.000938619
0.000845276
0.000752151
0.000664546
0.000586586
0.000521965
0.000479337
0.00100943
0.000948892
0.000824118
0.000717206
0.000722909
0.000868461
0.00111668
0.00136475
0.00151146
0.00151677
0.00142592
0.00129043
0.00115599
0.00104685
0.000974863
0.000942643
0.000944671
0.000969365
0.00100113
0.0010238
0.00102419
0.000994744
0.000934463
0.000848112
0.000744296
0.000632936
0.000523095
0.000421449
0.000332097
0.000256828
0.000195733
0.00014833
0.000114745
9.39614e-05
3.0303e-09
1.6463e-08
4.00374e-08
7.254e-08
1.66491e-07
3.34301e-07
1.92234e-08
2.48428e-07
1.92379e-06
6.27889e-06
1.07504e-05
1.33662e-05
4.29445e-08
1.3163e-06
1.31938e-05
3.26336e-05
5.16995e-05
6.60469e-05
6.1367e-08
3.06067e-06
2.13244e-05
4.9177e-05
7.845e-05
0.000103775
7.83271e-08
5.25762e-06
2.87579e-05
6.54593e-05
0.000106697
0.000144273
1.97844e-07
8.64688e-06
4.00741e-05
9.12621e-05
0.000152504
0.000210004
8.67599e-07
1.3887e-05
5.85039e-05
0.000134944
0.000229043
0.000316742
2.67303e-06
2.18575e-05
8.90816e-05
0.000208852
0.000354615
0.000481257
5.85532e-06
3.41295e-05
0.000140571
0.000330492
0.00054551
0.00070681
9.77129e-06
5.30761e-05
0.000225638
0.00051703
0.000802838
0.000972327
0.00122238
0.00110685
0.000977829
0.000930995
0.00101126
0.00119377
0.0014078
0.00156384
0.00160384
0.00152981
0.00138988
0.00123767
0.00110798
0.00101622
0.000964268
0.000944655
0.000943736
0.000945558
0.00093585
0.000905565
0.0008526
0.000781102
0.000698823
0.000613734
0.000530512
0.000452716
0.000381167
0.00031545
0.000254785
0.000198387
0.00014582
9.76685e-05
5.4796e-05
2.41962e-05
0.00138924
0.00125246
0.00116299
0.0011772
0.00129227
0.00145727
0.00159995
0.00165745
0.0016078
0.00147671
0.00131472
0.00116581
0.00105306
0.000980828
0.00094156
0.000921639
0.000906466
0.000884756
0.000851228
0.000806701
0.000755782
0.000703729
0.000653978
0.000607254
0.000562455
0.000518081
0.000472442
0.000425039
0.000376659
0.00032919
0.000267943
0.0001826
5.89511e-05
4.51257e-06
0.001522
0.00140572
0.00136234
0.00141103
0.00152129
0.00163558
0.00169506
0.00166474
0.00154965
0.00138774
0.00122498
0.00109277
0.00100163
0.000946608
0.000915507
0.000895558
0.000877761
0.000858558
0.000838896
0.000821359
0.000807529
0.00079666
0.000785924
0.000771692
0.0007513
0.000723737
0.000691414
0.00066293
0.000635124
0.000573548
0.000497244
0.000345831
8.53048e-05
3.21403e-06
0.00164488
0.00156276
0.0015514
0.00160482
0.00168157
0.00172973
0.00170938
0.00161056
0.00145618
0.00128701
0.00113949
0.0010319
0.000964647
0.000928377
0.000912004
0.00090768
0.000911952
0.000924145
0.000943774
0.000968417
0.000993357
0.00101249
0.00102009
0.00101262
0.000990481
0.000959779
0.000926845
0.000874763
0.000819814
0.000772379
0.000698938
0.000476741
0.000108924
2.91745e-06
0.00176428
0.0017093
0.00170971
0.00174445
0.00177131
0.00175099
0.0016642
0.00152044
0.00135157
0.00119424
0.00107339
0.000996478
0.000958492
0.000950264
0.00096419
0.000995733
0.00104174
0.00109798
0.00115788
0.00121276
0.00125352
0.00127264
0.00126621
0.00123581
0.00119292
0.00113393
0.00106483
0.00100259
0.000951448
0.000905289
0.000816122
0.000551878
0.000125958
2.76585e-06
0.00187044
0.00183033
0.00182527
0.00182664
0.00179764
0.00171645
0.00158263
0.00141817
0.00125625
0.00112565
0.0010409
0.00100251
0.00100385
0.00103738
0.00109673
0.00117567
0.00126594
0.00135667
0.00143539
0.00149014
0.00151187
0.00149628
0.00144553
0.0013726
0.00127955
0.00119339
0.00111451
0.00104827
0.000997803
0.000951515
0.000860188
0.000585195
0.000134875
2.49307e-06
0.00184389
0.00175785
0.00175588
0.00185451
0.00177331
0.00164609
0.00148714
0.00132427
0.00118705
0.00109566
0.00105664
0.00106674
0.00111865
0.00120396
0.001313
0.00143347
0.00155018
0.00164695
0.00170893
0.00172487
0.00168899
0.00160613
0.00148549
0.00136718
0.0012547
0.00115577
0.00107498
0.00101436
0.000971603
0.000933897
0.000852417
0.000583041
0.000134245
2.1769e-06
0.00173653
0.00165519
0.00167218
0.00180848
0.00171449
0.00155991
0.00139743
0.00125573
0.0011584
0.00111726
0.0011335
0.00120049
0.00130795
0.00144267
0.00158828
0.0017256
0.0018348
0.00189802
0.001901
0.00183374
0.00169925
0.00154032
0.00138826
0.00125081
0.00113321
0.00103817
0.000968965
0.000922005
0.000894391
0.000872492
0.000805486
0.000547499
0.000121403
2.10895e-06
0.00162332
0.00156061
0.00160824
0.00178829
0.00163862
0.00147628
0.00133047
0.00122685
0.0011815
0.00119961
0.0012767
0.00140077
0.00155535
0.00172
0.00187178
0.00198755
0.00204657
0.00203128
0.00192628
0.0017243
0.0015244
0.00134074
0.00118136
0.00104861
0.000947065
0.000872304
0.000822202
0.000794232
0.000785174
0.000781136
0.000726117
0.000481297
0.000101591
2.04776e-06
0.00151969
0.00148537
0.00157152
0.00172291
0.00156237
0.00141153
0.00129963
0.00124671
0.00126194
0.00134282
0.00147677
0.00164443
0.00182142
0.00198109
0.00209729
0.00214697
0.0021104
0.00196685
0.00169553
0.00144588
0.00122694
0.00104743
0.000905491
0.000800209
0.000727857
0.000680596
0.000654132
0.000647082
0.00065823
0.000670757
0.000626703
0.000401557
7.92559e-05
1.90876e-06
0.00143424
0.00143356
0.00156399
0.00165464
0.00149975
0.00137682
0.0013119
0.00131874
0.00139654
0.00153303
0.00170669
0.00188962
0.00205117
0.00216228
0.00219798
0.00213816
0.00196335
0.00165021
0.00132957
0.00107218
0.000865215
0.000718718
0.000614892
0.000546537
0.000505893
0.000485522
0.000482095
0.000496111
0.000528058
0.000556202
0.000522607
0.000317162
5.72796e-05
1.64209e-06
0.00136997
0.00140708
0.00159518
0.00159487
0.00146051
0.00137907
0.00137047
0.0014379
0.00156962
0.00174253
0.00192585
0.00208514
0.00218776
0.00220684
0.00212245
0.0019203
0.00158674
0.00122533
0.000909648
0.000686195
0.00053285
0.000433527
0.000371816
0.000335949
0.000318531
0.000315931
0.000328777
0.000360726
0.000411154
0.000451554
0.000416536
0.000231088
3.64495e-05
1.3562e-06
0.00132913
0.00141133
0.00167912
0.00155288
0.00145195
0.00142121
0.00146931
0.00158901
0.00175518
0.00193467
0.00208968
0.00218378
0.00218747
0.00208082
0.00185385
0.00150645
0.00112484
0.000792411
0.000550004
0.000403764
0.00031983
0.000269924
0.000237917
0.000217283
0.000204636
0.000201765
0.000214632
0.000252003
0.000309245
0.000346957
0.000300472
0.000137699
1.91418e-05
1.10914e-06
0.0013129
0.00144744
0.00164936
0.00153288
0.00147404
0.00149599
0.00159529
0.00174913
0.00192187
0.00207263
0.00216128
0.00215505
0.00203313
0.00178912
0.00143641
0.00102761
0.000690496
0.000464207
0.000339741
0.000275679
0.000238997
0.000214325
0.000194611
0.000176376
0.000158856
0.000145707
0.000145646
0.000169424
0.000212315
0.000227948
0.000174329
7.19825e-05
1.01499e-05
8.05973e-07
0.00132418
0.00152963
0.00162269
0.00153697
0.00152468
0.00159443
0.00172942
0.0018927
0.00204056
0.00212892
0.00212131
0.00199473
0.00174336
0.00138334
0.000969055
0.000619296
0.000409522
0.00030781
0.000258915
0.000231025
0.000211954
0.000196871
0.000182676
0.000166673
0.000147261
0.000126261
0.000111016
0.000111907
0.000127542
0.000128855
9.20331e-05
3.72449e-05
5.48017e-06
4.97675e-07
0.0013673
0.00167126
0.00161225
0.00156248
0.00159433
0.00170216
0.0018519
0.00199758
0.00209144
0.00209238
0.00197431
0.00173056
0.00137757
0.000965324
0.000595858
0.000381027
0.000291017
0.000251265
0.000228189
0.000211772
0.000199055
0.00018842
0.000178021
0.000165445
0.000148112
0.000124954
9.91395e-05
7.95357e-05
7.3164e-05
6.95813e-05
4.879e-05
2.00152e-05
3.00636e-06
2.56319e-07
0.00144282
0.00169726
0.00161682
0.0016049
0.00167475
0.00180423
0.00194615
0.00204947
0.00206811
0.00197108
0.00174936
0.00141828
0.00102179
0.00064469
0.000391418
0.000285778
0.000249427
0.000229399
0.000214109
0.000201358
0.000190753
0.000181838
0.000173599
0.000164272
0.000151255
0.000131759
0.000104591
7.33564e-05
4.95185e-05
3.97188e-05
2.73041e-05
1.13434e-05
1.65824e-06
1.11493e-07
0.00156579
0.00168882
0.0016342
0.0016574
0.00175549
0.0018884
0.00200168
0.00204422
0.00197835
0.00178968
0.00148956
0.00111824
0.000740995
0.000452232
0.000305026
0.000255506
0.000237811
0.000224358
0.000211346
0.000198781
0.000187411
0.000177589
0.000169066
0.000160946
0.000151427
0.000137725
0.000116755
8.6525e-05
5.11512e-05
2.80827e-05
1.70162e-05
6.89046e-06
9.24814e-07
4.40909e-08
0.00175811
0.0016888
0.00166222
0.00171478
0.00182767
0.00194678
0.00201526
0.00198782
0.00184152
0.00158245
0.00123921
0.000870065
0.00055228
0.000356823
0.000278919
0.000255846
0.000245296
0.000234599
0.000221549
0.000206916
0.00019235
0.000179024
0.000167439
0.000157426
0.000148207
0.0001379
0.000123688
0.000102248
7.04695e-05
3.28716e-05
1.40395e-05
4.84748e-06
5.55509e-07
1.9768e-08
0.00176223
0.00169543
0.00169496
0.00177089
0.00188502
0.00197608
0.00198979
0.00189235
0.00167936
0.00137396
0.00102184
0.000686402
0.000442379
0.000322058
0.000285114
0.00027611
0.000269994
0.000260851
0.000246882
0.000229174
0.000209504
0.00019025
0.000172975
0.000158047
0.000145427
0.000134245
0.0001225
0.000107497
8.60402e-05
5.46971e-05
1.98753e-05
4.95811e-06
4.37836e-07
1.55858e-08
0.00175749
0.00170805
0.0017311
0.00182124
0.00192449
0.00197737
0.00193318
0.00177382
0.00151291
0.00118699
0.000848179
0.000563823
0.000390636
0.000324583
0.000312793
0.000313413
0.000311137
0.000303122
0.000287744
0.000266416
0.000241389
0.000215095
0.000189511
0.000167162
0.000148127
0.000132303
0.000118461
0.000104451
8.76338e-05
6.52318e-05
3.30356e-05
7.33525e-06
5.68151e-07
2.40096e-08
0.00175542
0.00172377
0.00176773
0.00186311
0.00194582
0.00195494
0.00185559
0.00164684
0.0013567
0.00102874
0.000719287
0.000492264
0.00037959
0.000352056
0.000357947
0.000366967
0.000368709
0.000361796
0.000344914
0.000319638
0.000288458
0.000254244
0.000219835
0.000187858
0.00016008
0.000136833
0.000117646
0.000100832
8.39596e-05
6.43367e-05
4.04836e-05
1.11425e-05
8.51556e-07
4.04816e-08
0.00175607
0.00174258
0.00180296
0.00189547
0.00195077
0.00191471
0.00176693
0.00152231
0.00121826
0.000901729
0.000631263
0.000460568
0.000397042
0.000398031
0.000418384
0.000435695
0.000441879
0.000436226
0.000418099
0.000389129
0.000351894
0.000309496
0.000265241
0.000222308
0.00018351
0.000150544
0.000123458
0.000101254
8.16521e-05
6.18894e-05
3.95273e-05
1.46095e-05
1.10021e-06
6.08981e-08
0.00175949
0.00176379
0.00183557
0.0019185
0.00194232
0.00186292
0.00167533
0.00140719
0.00110064
0.000805034
0.000578038
0.000458906
0.000434836
0.000458384
0.000491789
0.000517617
0.000528915
0.000524279
0.000505417
0.000473423
0.000430762
0.00038052
0.000326212
0.00027157
0.000220193
0.000175039
0.00013759
0.000107554
8.3053e-05
6.12223e-05
3.90891e-05
1.64046e-05
1.45722e-06
7.97041e-08
0.00176561
0.00178666
0.00186496
0.00193321
0.00192391
0.0018052
0.00158669
0.00130498
0.00100435
0.000735876
0.000553089
0.000479326
0.000487174
0.000529509
0.000574923
0.000609077
0.000625728
0.000622463
0.000603552
0.000569557
0.000522704
0.000465804
0.000402199
0.000335802
0.000270928
0.000211756
0.000161357
0.000120823
8.90433e-05
6.32409e-05
4.00627e-05
1.78947e-05
1.97077e-06
9.11103e-08
0.00177411
0.00181044
0.00189106
0.00194111
0.00189896
0.00174608
0.00150468
0.001217
0.000928376
0.000690563
0.000550271
0.00051554
0.000549502
0.000607797
0.000663907
0.000705505
0.000726979
0.000726228
0.000707939
0.000673051
0.000623585
0.000561923
0.000490892
0.000414061
0.000335935
0.000261683
0.000196107
0.000142241
0.000100405
6.83165e-05
4.22777e-05
1.94858e-05
2.64731e-06
9.77998e-08
0.00178524
0.00183481
0.00191409
0.00194386
0.00187046
0.0016888
0.00143125
0.00114328
0.000870868
0.000665128
0.000564159
0.000562561
0.000618067
0.000689921
0.000755279
0.000803324
0.000829127
0.000831
0.000813692
0.000778779
0.000728188
0.000663878
0.000587983
0.000503281
0.000413763
0.000324883
0.000242903
0.000173166
0.000118248
7.71596e-05
4.62055e-05
2.15054e-05
3.56099e-06
9.99634e-08
0.00179852
0.00185929
0.00192123
0.001943
0.00184084
0.00163547
0.00136722
0.00108311
0.000829589
0.000655702
0.000590141
0.000616406
0.000689715
0.000772937
0.000846015
0.00089936
0.000928739
0.00093293
0.000916614
0.000882107
0.00083141
0.000766207
0.000687985
0.000598551
0.000500832
0.000399634
0.000301802
0.000214735
0.000143901
9.07444e-05
5.24528e-05
2.4401e-05
4.85917e-06
9.27311e-08
0.00181365
0.00188326
0.00185191
0.00193974
0.00181195
0.00158745
0.00131269
0.0010354
0.000802157
0.000658734
0.000624379
0.000673877
0.000761829
0.000854399
0.000933699
0.000991196
0.00102332
0.00102932
0.00101374
0.000979659
0.000929304
0.000864281
0.000785613
0.000694237
0.000591878
0.000482043
0.000370997
0.000267125
0.000178589
0.000110263
6.16809e-05
2.84512e-05
6.57122e-06
8.8031e-08
0.00183
0.0019064
0.00179848
0.00193516
0.00178513
0.00154546
0.00126735
0.000998851
0.000786228
0.000671078
0.000663733
0.000732426
0.000832307
0.000932403
0.00101658
0.00107721
0.00111132
0.00111858
0.00110334
0.00106942
0.00101942
0.000955028
0.000876974
0.000785518
0.000681371
0.000566716
0.000446501
0.000328697
0.000222814
0.000137006
7.47844e-05
3.39817e-05
8.78748e-06
2.39855e-07
0.00184692
0.00184009
0.0017578
0.00191771
0.00176124
0.00150978
0.00123066
0.000972121
0.000779604
0.000690034
0.000705672
0.000790051
0.000899515
0.00100555
0.00109345
0.00115638
0.00119187
0.00119986
0.00118452
0.00115038
0.00110053
0.00103685
0.000959892
0.000869329
0.000765071
0.000648346
0.000522905
0.000395638
0.00027546
0.000171918
9.30653e-05
4.14215e-05
1.1584e-05
7.26941e-07
0.00186406
0.0017719
0.00172662
0.00189466
0.00174087
0.00148044
0.00120199
0.000953877
0.00078031
0.000713334
0.000748194
0.0008452
0.000962221
0.00107283
0.00116351
0.0012281
0.00126446
0.00127273
0.00125683
0.00122203
0.00117205
0.00110907
0.00103348
0.00094431
0.000840694
0.000723221
0.00059503
0.000462517
0.00033324
0.000214948
0.000117791
5.14163e-05
1.50894e-05
1.81589e-06
0.00188112
0.001724
0.00170252
0.00187397
0.00172433
0.00145732
0.00118066
0.000942879
0.000786619
0.000739126
0.000789737
0.000896688
0.0010195
0.00113351
0.00122619
0.0012919
0.00132873
0.00133686
0.00131995
0.00128405
0.00123364
0.00117139
0.00109747
0.00101014
0.000907559
0.000789723
0.000659544
0.000524042
0.000390783
0.000264059
0.000149943
6.49163e-05
1.94609e-05
3.70729e-06
0.00189784
0.00168983
0.0016835
0.00185567
0.00171181
0.00144018
0.00116602
0.000938018
0.000797081
0.000765932
0.000829087
0.000943614
0.00107066
0.00118704
0.00128103
0.00134736
0.00138429
0.0013919
0.00137353
0.00133609
0.001285
0.00122355
0.00115174
0.00106683
0.000965751
0.000847715
0.000715387
0.000577044
0.000442506
0.000314348
0.000189286
8.32614e-05
2.4842e-05
6.33841e-06
0.00191408
0.00166443
0.0016681
0.00183898
0.0017034
0.00142877
0.00115746
0.000938344
0.000810505
0.000792591
0.000865335
0.0009853
0.00111516
0.00123296
0.00132758
0.00139406
0.00143068
0.0014374
0.00141714
0.00137776
0.00132583
0.00126537
0.00119619
0.0011144
0.00101544
0.000897534
0.000762882
0.000620863
0.000484921
0.000359873
0.000233426
0.000107597
3.14196e-05
9.31853e-06
0.00192976
0.00164518
0.00165523
0.00182292
0.00169914
0.00142285
0.00115448
0.00094308
0.000825961
0.000818233
0.000897811
0.00102124
0.00115259
0.00127086
0.00136542
0.00143146
0.00145916
0.00147276
0.00145024
0.00140867
0.00135593
0.00129679
0.00123081
0.00115284
0.00105662
0.000939327
0.000802575
0.000656292
0.000517408
0.000396051
0.000277362
0.000138493
3.94135e-05
1.21709e-05
0.00191457
0.00163038
0.00164406
0.00180661
0.00169901
0.00142221
0.00115666
0.000951636
0.000842767
0.000842246
0.000926054
0.00105108
0.0011826
0.00130037
0.00139404
0.00145638
0.00149359
0.00149719
0.00147214
0.0014285
0.00137536
0.00131808
0.00125587
0.00118225
0.00108924
0.000972931
0.000834577
0.000684224
0.000541245
0.000421501
0.00031501
0.000175018
4.91796e-05
1.45567e-05
0.00188142
0.00161877
0.00163374
0.00178951
0.00170297
0.00142665
0.00116373
0.000963619
0.000860491
0.000864273
0.000949811
0.00107459
0.00120494
0.00132104
0.0014128
0.00147579
0.00150819
0.00150945
0.001482
0.00143704
0.00138447
0.0013299
0.00127198
0.00120295
0.00111324
0.000998025
0.000858538
0.00070495
0.000557949
0.000437667
0.000342078
0.000213607
6.12292e-05
1.6272e-05
0.00185409
0.00160931
0.0016236
0.00177141
0.00171096
0.00143607
0.00117552
0.00097885
0.000878992
0.000884336
0.000969178
0.00109177
0.00121951
0.00132926
0.00141098
0.00148036
0.00150937
0.00150777
0.00147898
0.00143442
0.0013841
0.00133337
0.00128016
0.00121554
0.00112873
0.00101429
0.000873883
0.000718176
0.000568381
0.000446893
0.0003581
0.000248116
7.59123e-05
1.71938e-05
0.00183154
0.00160107
0.00161338
0.00175223
0.00172287
0.00145035
0.001192
0.000997491
0.00089877
0.000903812
0.000985487
0.00110308
0.00122496
0.00130262
0.00140269
0.00147124
0.00149663
0.00149271
0.00146426
0.00142215
0.00137593
0.00133025
0.00128202
0.00122114
0.001136
0.00102106
0.000879657
0.000723384
0.000572745
0.000450941
0.000365629
0.000272465
9.24173e-05
1.73347e-05
0.00181156
0.00159301
0.00160273
0.00173182
0.00173833
0.00146912
0.00121337
0.0010211
0.00092278
0.000924093
0.000998743
0.00110798
0.00119693
0.00128387
0.00139993
0.00145022
0.00147225
0.00146711
0.00144047
0.00140261
0.0013623
0.00132305
0.00128036
0.00122288
0.00113842
0.00102184
0.000878196
0.000720772
0.000570418
0.000449974
0.000367456
0.000283476
0.00010732
1.68299e-05
0.00179148
0.00158372
0.00159066
0.00170901
0.00175734
0.00149356
0.00124161
0.00105133
0.000951486
0.000945963
0.00101012
0.00110796
0.00117237
0.00127334
0.00137425
0.00141946
0.00143857
0.00143325
0.00140994
0.00137804
0.00134532
0.00131369
0.00127676
0.00122187
0.00113665
0.00101697
0.000870107
0.000711454
0.000562354
0.000444761
0.000366118
0.000289733
0.000116021
1.58656e-05
0.00176896
0.00157216
0.00157679
0.00168439
0.0017796
0.00152341
0.00127663
0.00108836
0.000985508
0.000970632
0.00102132
0.00108645
0.00115585
0.00126989
0.00134149
0.00138154
0.00139828
0.00139384
0.0013753
0.00135112
0.0013275
0.0013042
0.0012726
0.00121874
0.00113064
0.00100605
0.000854996
0.000695219
0.000548529
0.000435373
0.000361808
0.000293116
0.000123515
1.45773e-05
0.00174224
0.0015574
0.00156101
0.00165853
0.0017529
0.00155798
0.00131829
0.00113244
0.00102568
0.000999672
0.00103464
0.00106899
0.00114632
0.00125013
0.0013049
0.00133973
0.00135467
0.00135229
0.00134003
0.00132521
0.00131181
0.00129679
0.00126905
0.00121366
0.00111988
0.000988282
0.000832187
0.000671739
0.000528927
0.000421933
0.000354573
0.000293192
0.000129666
1.30662e-05
0.00170988
0.00153861
0.00154281
0.00163169
0.00171585
0.00159692
0.00136642
0.00118385
0.00107291
0.00103475
0.00103107
0.00106034
0.00114513
0.00122269
0.00126852
0.0012982
0.00131195
0.00131297
0.00130855
0.00130436
0.00130155
0.00129355
0.00126679
0.0012061
0.00110314
0.000962373
0.00080082
0.000640735
0.000503655
0.000404681
0.000344489
0.000289553
0.000134074
1.14076e-05
0.00167039
0.00151503
0.0015217
0.0016039
0.00167957
0.00163982
0.00142065
0.00124266
0.0011278
0.00105403
0.00102459
0.00106106
0.0011537
0.0012007
0.00123738
0.00126212
0.00127542
0.00128129
0.00128608
0.00129309
0.00129986
0.00129593
0.0012655
0.00119446
0.00107835
0.000926606
0.000759983
0.000602116
0.000473038
0.000383918
0.000331689
0.000256772
0.000136326
9.68805e-06
0.00162228
0.00148605
0.00149709
0.00157446
0.00164427
0.00164831
0.00147969
0.00130564
0.00114186
0.0010499
0.00103022
0.00107335
0.00115698
0.00118945
0.00121725
0.00123763
0.00125141
0.00126355
0.00127827
0.00129566
0.00130898
0.00130389
0.00126319
0.00117564
0.00104255
0.000878976
0.000708952
0.000556154
0.000437752
0.000360232
0.000316355
0.000229149
0.000136082
8.00464e-06
0.00156472
0.00145089
0.00146811
0.00154272
0.00161043
0.0015813
0.00144217
0.00127609
0.00113923
0.00106292
0.00105166
0.00110038
0.00117372
0.00119443
0.00121435
0.00123139
0.0012469
0.00126624
0.00129027
0.00131502
0.00132906
0.00131475
0.00125536
0.00114485
0.000991987
0.000817597
0.000647586
0.000503682
0.000398908
0.000334371
0.000292694
0.000207785
0.000132869
6.36484e-06
0.00149692
0.00140915
0.00143406
0.00150836
0.0015575
0.00151224
0.00140106
0.00126716
0.00115656
0.00109561
0.00109231
0.00114665
0.00120971
0.00122074
0.0012345
0.00124974
0.00126872
0.00129476
0.00132511
0.00135102
0.00135651
0.00132206
0.00123444
0.00109568
0.00092283
0.000741434
0.000576798
0.000446338
0.000357483
0.000307204
0.00025649
0.000192109
0.000126194
4.84255e-06
0.00141912
0.00135985
0.00139461
0.0014638
0.00149354
0.00146515
0.00138139
0.00127824
0.0011931
0.00114877
0.00115553
0.00121724
0.00126809
0.00127234
0.00128225
0.00129731
0.00132044
0.00135072
0.00138116
0.00139815
0.00138215
0.00131462
0.00119007
0.00102114
0.000832446
0.000651228
0.000498945
0.000386595
0.000315833
0.000279907
0.000230731
0.000182036
0.000115695
3.50283e-06
0.00133234
0.00130244
0.00134803
0.00140332
0.00144276
0.00143357
0.00137734
0.00130462
0.00124605
0.00122144
0.00124231
0.00131519
0.00135055
0.00135128
0.00135969
0.00137555
0.00140103
0.00142948
0.00144939
0.00144302
0.00138963
0.00127652
0.00111078
0.000916083
0.000721133
0.000550347
0.000417918
0.000327516
0.000275757
0.000252986
0.000212888
0.000176961
0.000101023
2.94749e-06
0.00123761
0.0012365
0.00128425
0.00134802
0.00139872
0.00141003
0.00138256
0.00134109
0.00131105
0.00130962
0.00134913
0.0014378
0.00145643
0.00145639
0.00146451
0.00148014
0.00150168
0.00151693
0.00151048
0.00146242
0.00135548
0.00118977
0.000987806
0.00078026
0.000593806
0.000444939
0.000338653
0.000272121
0.000238489
0.000226509
0.000199389
0.000175959
8.0977e-05
2.64869e-06
0.00113598
0.00115711
0.00121978
0.00129191
0.00135527
0.00138908
0.00139196
0.00138278
0.00138295
0.00140716
0.00146786
0.00157586
0.00158067
0.00158033
0.0015863
0.0015967
0.00160103
0.00158555
0.00153223
0.00142325
0.00125302
0.00104093
0.000820748
0.000621343
0.000460302
0.00034295
0.000265978
0.000222507
0.000204249
0.000199516
0.000186346
0.000158687
5.23005e-05
2.24207e-06
0.00102833
0.00107174
0.00115025
0.00123094
0.00130926
0.00136795
0.00140263
0.00142646
0.00145716
0.00150658
0.00158788
0.00171727
0.00170904
0.00170438
0.00170087
0.00169109
0.00165976
0.00159109
0.00146924
0.0012881
0.00106346
0.00083101
0.000622702
0.00045554
0.000333514
0.000251991
0.000203109
0.00017902
0.000171753
0.000169837
0.000154381
0.000111189
2.42592e-05
1.74686e-06
0.000914437
0.00097956
0.00107401
0.00116448
0.00126103
0.00134701
0.00141369
0.00146828
0.00152526
0.00159914
0.00171122
0.00182543
0.00180874
0.00178957
0.00176206
0.00170913
0.00161647
0.00147137
0.00127138
0.00103386
0.000793999
0.000585148
0.000421721
0.000303886
0.00022513
0.000176712
0.000150517
0.000140034
0.000138288
0.00013418
0.000106152
4.24393e-05
8.95698e-06
1.29306e-06
0.000803185
0.00088631
0.000994216
0.001096
0.00121243
0.00132372
0.00141694
0.00149899
0.00158882
0.00170274
0.00185113
0.001851
0.00181106
0.00176107
0.00168269
0.0015602
0.00138644
0.0011663
0.000922863
0.000690431
0.000497094
0.000352021
0.000250244
0.000182908
0.000141098
0.000117346
0.000105962
0.000102418
0.000100444
8.84325e-05
4.37923e-05
1.35016e-05
3.5995e-06
7.86628e-07
0.00067171
0.000788427
0.000909923
0.00102158
0.0011611
0.00130494
0.00143427
0.00155248
0.00167768
0.00179566
0.00173439
0.00166664
0.00159015
0.00149078
0.00133958
0.00114558
0.000924758
0.000703995
0.000510194
0.00035836
0.000249444
0.00017565
0.000127518
9.74668e-05
7.98021e-05
7.03873e-05
6.58174e-05
6.30679e-05
5.66426e-05
3.16039e-05
1.19526e-05
5.02606e-06
1.5092e-06
3.47658e-07
0.000581904
0.000711842
0.000838264
0.00096323
0.00111717
0.00127478
0.00140992
0.00146101
0.00137165
0.00128301
0.00119431
0.0011029
0.00100244
0.000857021
0.000694378
0.000534788
0.000393352
0.000279223