/*--------------------------------*- C++ -*----------------------------------*\
| =========                 |                                                 |
| \\      /  F ield         | OpenFOAM: The Open Source CFD Toolbox           |
|  \\    /   O peration     | Version:  v2012                                 |
|   \\  /    A nd           | Website:  www.openfoam.com                      |
|    \\/     M anipulation  |                                                 |
\*---------------------------------------------------------------------------*/
FoamFile
{
    version     2.0;
    format      ascii;
    class       volScalarField;
    location    "565";
    object      omega;
}
// * * * * * * * * * * * * * * * * * * * * * * * * * * * * * * * * * * * * * //

dimensions      [0 0 -1 0 0 0 0];


internalField   nonuniform List<scalar> 
6018
(
232.849
233.64
234.399
235.13
235.849
236.578
237.344
238.172
239.094
240.147
241.375
242.84
244.621
246.828
249.62
253.222
257.973
264.384
273.264
285.969
72.9619
70.6111
68.7113
67.227
66.1978
65.6416
65.4808
65.6419
66.0639
66.698
67.5037
68.439
69.4541
70.4966
71.4821
72.2735
72.6558
72.276
70.4219
65.7987
36.5887
35.6525
35.0905
34.8513
34.8884
35.1555
35.6115
36.2252
36.9749
37.8461
38.8301
39.9218
41.1168
42.4138
43.8225
45.3604
47.0591
48.9834
51.2596
54.1509
25.6092
25.5928
25.7748
26.1223
26.6098
27.2191
27.9388
28.7636
29.6936
30.7335
31.8928
33.1859
34.6335
36.2626
38.1103
40.2286
42.6873
45.5812
49.0376
53.2263
22.0939
22.462
22.9393
23.5123
24.1734
24.9195
25.7518
26.6751
27.6977
28.8314
30.0916
31.4986
33.0778
34.8614
36.8902
39.2166
41.9071
45.0476
48.7494
53.1578
21.378
21.9236
22.5349
23.2091
23.9467
24.751
25.6276
26.5848
27.6332
28.7875
30.0626
31.4799
33.066
34.8542
36.886
39.2143
41.906
45.0471
48.7492
53.1578
22.6543
23.3479
24.0773
24.8452
25.6564
26.5165
27.4321
28.4119
29.452
30.5681
31.7811
33.1117
34.5848
36.2311
38.0909
40.2174
42.6815
45.5786
49.0367
53.2261
27.8826
28.8882
29.8962
30.9225
31.9801
33.0755
34.1592
35.2117
36.274
37.3666
38.5048
39.7004
40.9654
42.3118
43.7567
45.3199
47.0361
48.972
51.255
54.15
50.4124
52.313
54.1519
56.0574
58.1596
60.006
61.551
62.9243
64.2005
65.4296
66.642
67.8517
69.0571
70.2318
71.3074
72.1613
72.5887
72.24
70.4043
65.7934
236.324
236.246
236.303
236.51
236.845
237.297
237.86
238.541
239.357
240.333
241.506
242.931
244.683
246.87
249.646
253.239
257.982
264.388
273.265
285.97
227.646
227.656
227.656
227.644
227.626
227.61
227.602
227.599
227.598
227.6
227.608
227.624
227.641
227.652
227.655
227.655
227.654
227.655
227.661
227.666
227.668
227.672
227.678
227.679
227.677
227.695
227.795
227.99
228.334
228.85
229.531
230.327
231.171
232.021
36.0985
37.4673
41.2721
46.5809
50.0042
50.4991
48.5698
45.1297
41.0939
39.0052
37.2531
36.5806
36.7146
37.5129
38.6642
40.3952
41.2055
40.9748
41.3391
42.2434
45.3285
52.4902
61.1666
69.4482
76.8633
82.5366
86.3015
88.3668
88.9048
88.0428
85.9934
82.9773
79.3138
75.8481
16.4954
16.0012
16.2915
18.5632
21.3715
23.2356
23.3766
21.7444
18.8113
16.2362
14.4884
13.8006
13.9042
14.5516
15.6983
18.2251
21.2263
25.0776
31.3464
38.0283
44.4085
49.6879
53.3798
55.5179
56.3463
56.0022
54.7125
52.7191
50.2374
47.4463
44.6763
42.0869
39.8062
37.9628
14.7589
13.3652
12.4151
12.4878
13.4227
14.5784
15.1335
14.5946
13.0499
11.429
10.6214
10.787
11.5911
13.2573
16.0573
20.911
26.3113
31.4991
36.0915
39.5495
41.7082
42.6239
42.4722
41.4975
39.9421
38.015
35.9079
33.7796
31.7752
29.9767
28.4566
27.2625
26.4061
25.8664
14.3473
12.7731
11.6108
10.9354
10.8831
11.2889
11.6618
11.5203
10.836
10.4354
11.2576
12.9586
15.2152
18.304
22.1606
26.613
30.5684
33.4674
35.1509
35.6611
35.2377
34.1633
32.6796
30.9803
29.2201
27.5203
25.973
24.6417
23.5621
22.7438
22.1839
21.8669
21.7671
21.8526
13.3971
11.7592
10.654
9.96377
9.69561
9.81751
10.0949
10.2575
10.5421
11.9723
14.121
16.7446
19.6695
23.0342
26.3884
29.1563
30.8686
31.4575
31.1149
30.1289
28.7818
27.2819
25.7695
24.3423
23.0714
22.005
21.1691
20.5698
20.1972
20.0313
20.046
20.2122
20.5047
20.9
11.9569
10.4317
9.48978
8.98924
8.82917
8.99078
9.43575
10.2973
12.1086
14.6669
17.5083
20.3842
23.2327
25.7538
27.5851
28.4909
28.4654
27.7219
26.5565
25.2188
23.8769
22.6319
21.5468
20.6623
20.0014
19.5704
19.3605
19.3522
19.5183
19.8284
20.2551
20.7711
21.3519
21.9842
10.4277
9.13115
8.41866
8.15155
8.21609
8.68489
9.8138
11.8789
14.7264
17.6013
20.4557
22.9641
24.8946
26.092
26.4769
26.1112
25.2129
24.0507
22.8414
21.7203
20.7641
20.0173
19.5055
19.2405
19.2216
19.4378
19.8721
20.5032
21.3098
22.2742
23.3673
24.5372
25.6992
26.8208
9.14105
8.11906
7.68693
7.69727
8.15488
9.37898
11.5167
14.2551
17.2051
20.0114
22.3588
23.9658
24.7807
24.8471
24.3016
23.3713
22.2977
21.2675
20.3954
19.747
19.3626
19.2693
19.4861
20.0275
20.9068
22.141
23.7516
25.769
28.2335
31.1864
34.6569
38.653
43.0663
47.0505
8.29094
7.60312
7.4963
7.96648
9.10831
11.043
13.6236
16.4675
19.2196
21.4983
23.0017
23.6439
23.5466
22.9229
22.0216
21.0712
20.2377
19.6252
19.2997
19.312
19.7109
20.5508
21.9011
23.8524
26.5252
30.083
34.7519
40.8405
48.7773
59.1948
73.0879
92.1884
120.33
164.947
227.596
227.598
227.6
227.603
227.613
227.629
167.215
51.8589
39.3716
36.7721
35.7392
35.5355
167.217
33.4167
21.1146
19.3919
18.3279
17.3457
167.218
35.5659
24.3363
21.0056
18.5496
16.5141
167.219
43.3198
29.6164
23.5826
19.5137
16.6152
167.228
51.0782
33.462
24.8658
19.4467
15.915
167.277
56.8628
35.1124
24.5052
18.2843
14.4589
167.408
59.8683
34.503
22.6952
16.302
12.6623
167.64
59.6361
31.8776
19.9269
14.0327
10.9324
167.927
56.4681
27.9393
16.9153
12.0172
9.61734
7.9242
7.66783
8.05255
9.06732
10.7516
13.0446
15.6876
18.316
20.5315
21.997
22.5872
22.4236
21.777
20.9322
20.1165
19.4816
19.1201
19.0943
19.4556
20.2541
21.5416
23.3721
25.7989
28.866
32.5489
36.8267
41.6194
46.8102
52.2818
58.0034
64.2909
72.4655
88.6499
143.801
8.14093
8.37849
9.19642
10.6048
12.5704
14.9236
17.3643
19.5009
20.9749
21.6096
21.4869
20.8804
20.1042
19.4005
18.9174
18.7382
18.9156
19.4898
20.4954
21.9574
23.8831
26.2446
28.9549
31.8435
34.6524
37.0605
38.6721
39.0618
37.7823
34.1618
28.4629
22.9814
29.6306
142.574
8.9039
9.46442
10.587
12.2244
14.26
16.4582
18.4774
19.9595
20.6818
20.664
20.1457
19.4458
18.8261
18.4441
18.3787
18.6722
19.3516
20.4313
21.9069
23.7334
25.8016
27.9196
29.8112
31.1411
31.5664
30.7661
28.5001
24.5952
19.8259
16.0688
12.874
11.7732
22.9029
142.493
9.89584
10.6996
12.0105
13.7283
15.6598
17.5191
18.9795
19.7905
19.9058
19.5063
18.8922
18.3375
18.0159
18.0122
18.3622
19.0811
20.1657
21.5774
23.2204
24.9197
26.4231
27.4286
27.6407
26.8326
24.8897
21.8278
18.0674
14.9029
12.1609
10.0891
8.63181
9.25229
21.3209
142.475
10.9837
11.9472
13.341
14.9979
16.6688
18.0663
18.9395
19.1874
18.9212
18.4015
17.9025
17.6155
17.6384
18.0087
18.7321
19.7868
21.1031
22.5409
23.885
24.8682
25.2248
24.7544
23.3741
21.1281
18.1062
15.0874
12.6469
10.7812
9.22066
7.97979
7.30449
8.46429
20.6098
142.465
12.0695
13.1105
14.4785
15.9477
17.2485
18.1446
18.503
18.3694
17.9499
17.5042
17.2382
17.2662
17.6331
18.3409
19.3493
20.5617
21.8071
22.8535
23.4519
23.3974
22.5836
21.0179
18.7835
15.9854
13.598
11.691
10.1354
8.87016
7.84514
7.06514
6.75713
8.11745
20.2247
142.448
13.0986
14.1353
15.3695
16.5432
17.4233
17.8601
17.8439
17.5241
17.1322
16.8805
16.9008
17.2495
17.9274
18.8804
19.9899
21.0686
21.8843
22.2199
21.9315
20.9795
19.4047
17.2424
14.7551
12.7823
11.1296
9.77231
8.66232
7.7543
7.02877
6.51011
6.40161
7.88906
20.0383
142.429
14.034
14.9748
15.9756
16.7928
17.2682
17.3464
17.1178
16.7803
16.5412
16.5434
16.8621
17.4982
18.389
19.4003
20.3366
20.977
21.1372
20.7233
19.7394
18.2247
16.0477
13.9797
12.1878
10.695
9.45636
8.43761
7.61438
6.94129
6.40484
6.04764
6.07284
7.68162
20.0406
142.424
14.8219
15.5807
16.2847
16.7437
16.8843
16.7344
16.4468
16.2174
16.1971
16.4712
17.0547
17.8762
18.7936
19.6076
20.1113
20.1496
19.6639
18.6867
17.2632
15.1091
13.2324
11.6204
10.2549
9.11222
8.19051
7.43079
6.79765
6.26889
5.84634
5.58883
5.70651
7.48202
20.2658
142.421
15.4187
15.9342
16.3253
16.4751
16.3829
16.1372
15.9089
15.8568
16.0798
16.597
17.3432
18.1704
18.8792
19.2733
19.2203
18.6848
17.714
16.3466
14.3213
12.5407
11.0282
9.79074
8.7637
7.92084
7.23133
6.63636
6.11146
5.65328
5.28794
5.09055
5.32066
7.36615
20.7767
142.412
15.8048
16.0512
16.1572
16.0759
15.8561
15.6196
15.524
15.6873
16.1307
16.7942
17.5357
18.1552
18.4625
18.3391
17.7644
16.796
15.492
13.6911
11.939
10.5438
9.38577
8.51546
7.76879
7.10928
6.5153
5.9641
5.46037
5.02809
4.70011
4.57591
5.00021
7.43137
21.6961
142.395
15.9858
15.9709
15.8456
15.6173
15.3627
15.2157
15.3004
15.6602
16.2393
16.8981
17.4443
17.687
17.5122
16.9067
15.9351
14.6783
13.0776
11.5216
10.2017
9.25789
8.52099
7.8765
7.24919
6.6114
5.97131
5.36066
4.82571
4.40802
4.133
4.17666
4.87858
7.90821
23.7566
142.378
15.9854
15.7425
15.4549
15.1617
14.9513
14.9441
15.196
15.6865
16.2697
16.7561
16.9575
16.7532
16.1291
15.1543
13.9258
12.4923
11.1272
10.0453
9.27108
8.73143
8.2727
7.79066
7.20546
6.51802
5.75638
5.01618
4.40521
3.97988
3.78892
4.08572
5.21619
9.64357
28.428
142.362
15.8385
15.4178
15.0354
14.7411
14.622
14.7613
15.1451
15.6563
16.0988
16.2803
16.072
15.4491
14.4824
13.2903
11.9975
10.7525
9.84852
9.26467
8.9006
8.64305
8.39987
8.09321
7.63937
6.97679
6.12257
5.22108
4.48755
4.06263
4.01242
4.64571
6.53195
12.3283
32.243
142.344
15.5818
15.0385
14.6214
14.378
14.377
14.6336
15.0627
15.472
15.6563
15.4697
14.872
13.9272
12.7663
11.5436
10.424
9.58946
9.08673
8.83134
8.72147
8.68583
8.66563
8.58709
8.34889
7.84307
7.02477
6.01656
5.13239
4.69128
4.82939
5.79872
8.31517
14.841
34.4736
142.325
15.2503
14.6389
14.2343
14.0681
14.1736
14.5013
14.8742
15.0777
14.9403
14.3945
13.4898
12.3589
11.1697
10.0853
9.23988
8.73233
8.49161
8.43844
8.5043
8.65306
8.84709
9.02276
9.07666
8.86947
8.27285
7.29594
6.24066
5.64652
5.88759
7.0685
9.8588
16.3694
34.8096
142.31
14.8769
14.2416
13.878
13.8022
13.988
14.3086
14.5344
14.4682
14.0046
13.1638
12.0706
10.8936
9.79454
8.88809
8.27172
7.98597
7.90949
7.97625
8.15681
8.43878
8.80337
9.20649
9.56369
9.73969
9.55443
8.86347
7.75867
6.79073
6.76058
7.92131
10.6261
16.5956
33.5149
142.301
14.4824
13.8572
13.5533
13.5577
13.7828
14.0193
14.0343
13.6808
12.9346
11.8955
10.7269
9.60429
8.62272
7.87654
7.4452
7.29453
7.31766
7.44893
7.69174
8.04711
8.5147
9.074
9.67144
10.2063
10.5102
10.3536
9.56422
8.32153
7.50132
8.13851
10.435
15.6001
31.1076
142.296
14.0846
13.4958
13.2637
13.3235
13.5299
13.6215
13.3976
12.7815
11.8299
10.6995
9.54213
8.49546
7.63039
7.04212
6.75271
6.67814
6.74257
6.90167
7.16695
7.54508
8.05022
8.68257
9.42105
10.206
10.924
11.3638
11.2301
10.2889
8.79013
8.08383
9.49826
13.7184
28.1712
142.295
13.6959
13.1556
12.9854
13.0808
13.2149
13.1249
12.6657
11.8372
10.7631
9.60751
8.51135
7.54853
6.80893
6.35953
6.15924
6.12063
6.19754
6.36265
6.6296
7.00624
7.50222
8.13944
8.92768
9.83987
10.8188
11.7276
12.2956
12.1356
10.9068
8.95186
8.53782
11.5632
25.6361
142.295
13.3249
12.8428
12.7242
12.8176
12.8389
12.5548
11.8891
10.9131
9.78658
8.65847
7.62226
6.75135
6.13393
5.78397
5.62803
5.59824
5.66978
5.82521
6.07851
6.43989
6.92265
7.542
8.30624
9.2553
10.3581
11.5514
12.656
13.3165
13.014
11.2606
8.8093
10.3525
24.6337
142.295
12.9717
12.5464
12.4731
12.53
12.414
11.9438
11.1145
10.0524
8.92049
7.83361
6.86166
6.08753
5.57189
5.28245
5.14246
5.10551
5.15965
5.2942
5.52135
5.85219
6.30131
6.88725
7.63168
8.56072
9.69994
11.0324
12.4746
13.7812
14.4686
13.8478
11.2733
10.3353
24.3542
142.296
12.6406
12.2733
12.2285
12.2207
11.9582
11.3237
10.3766
9.27511
8.16194
7.1199
6.2174
5.53487
5.09443
4.8381
4.69988
4.64945
4.68194
4.79138
4.98696
5.28031
5.68694
6.22723
6.92717
7.81865
8.93886
10.3207
11.9458
13.6947
15.2115
15.8173
14.5767
11.841
24.6985
142.297
12.3348
12.0246
11.9886
11.8963
11.4905
10.7204
9.69718
8.58614
7.50065
6.50592
5.67484
5.07087
4.68199
4.44236
4.29958
4.23375
4.24355
4.33012
4.49265
4.74471
5.10212
5.58634
6.22614
7.05901
8.13201
9.49944
11.2026
13.2223
15.3664
17.1063
17.4922
15.5364
25.1812
142.299
12.0564
11.7993
11.7532
11.5656
11.0281
10.1521
9.08495
7.98082
6.92618
5.98098
5.21835
4.67748
4.32345
4.09291
3.94532
3.86701
3.85772
3.92294
4.05449
4.266
4.57243
4.99473
5.56246
6.31669
7.31279
8.62134
10.3225
12.4778
15.0476
17.7175
19.6733
19.5245
25.8588
142.299
11.8044
11.595
11.5239
11.2374
10.584
9.62934
8.54052
7.45134
6.42908
5.53436
4.8335
4.34189
4.01252
3.78876
3.63897
3.55292
3.53015
3.57465
3.67942
3.85487
4.11393
4.47546
4.96723
5.63017
6.52387
7.73167
9.36295
11.5423
14.3598
17.7299
21.1187
23.2371
28.4936
142.3
11.5818
11.4109
11.3031
10.9194
10.1674
9.15681
8.06071
6.98978
6.00091
5.15559
4.50823
4.05502
3.74447
3.52718
3.37753
3.28694
3.25431
3.28231
3.36552
3.51133
3.73033
4.03836
4.4594
5.03048
5.80926
6.88407
8.38439
10.4861
13.3899
17.2274
21.8238
26.3145
32.9473
142.3
11.386
11.2454
11.0928
10.6173
9.78375
8.73537
7.64013
6.58897
5.63391
4.83503
4.23291
3.81007
3.51488
3.30411
3.15612
3.06313
3.02345
3.03884
3.10533
3.22805
3.4155
3.68043
4.04226
4.53177
5.19929
6.12841
7.45435
9.38763
12.2232
16.293
21.8009
28.4732
37.7996
142.299
11.2157
11.0966
10.8952
10.3346
9.43565
8.36283
7.27313
6.24254
5.3209
4.56427
3.99991
3.60156
3.31937
3.11498
2.96932
2.87505
2.83014
2.83583
2.88945
2.99467
3.15838
3.39078
3.7071
4.13143
4.70409
5.49628
6.63309
8.33394
10.9604
15.0253
21.1067
29.6288
42.352
142.299
11.0672
10.9635
10.7114
10.0738
9.12361
8.03588
6.95453
5.94483
5.05534
4.33619
3.80321
3.42489
3.15383
2.9553
2.81198
2.71681
2.66764
2.66556
2.70909
2.801
2.94715
3.15593
3.43937
3.81588
4.31596
4.99507
5.95701
7.40263
9.71556
13.5511
19.8393
29.7786
45.9941
142.309
10.9382
10.8453
10.542
9.83646
8.84662
7.75097
6.6797
5.6908
4.83146
4.14494
3.63793
3.27612
3.01452
2.82112
2.67977
2.58364
2.53064
2.52197
2.55727
2.63881
2.77183
2.9636
3.22407
3.56762
4.01697
4.61277
5.43353
6.64162
8.59301
12.0187
18.1754
29.0077
48.5251
142.339
10.8264
10.7406
10.3878
9.62307
8.6029
7.50465
6.44455
5.47594
4.64424
3.98572
3.50013
3.15196
2.8983
2.70917
2.56927
2.47199
2.41534
2.40084
2.42919
2.50237
2.62525
2.80453
3.04895
3.37053
3.78683
4.32732
5.04786
6.06474
7.66632
10.5651
16.2549
27.42
49.8138
142.406
10.7292
10.6479
10.2487
9.43297
8.39082
7.29421
6.24549
5.29628
4.48945
3.85465
3.38663
3.04965
2.80255
2.61689
2.47798
2.37937
2.31924
2.29947
2.32185
2.38811
2.50293
2.67268
2.90557
3.21245
3.60814
4.11504
4.77309
5.65727
6.96877
9.3146
14.2592
25.1483
49.769
142.524
10.6439
10.566
10.1248
9.26571
8.20846
7.11639
6.07932
5.14835
4.36351
3.7486
3.2949
2.96699
2.72521
2.54233
2.40408
2.30411
2.24075
2.21627
2.23354
2.29411
2.40245
2.56474
2.78897
3.08569
3.46865
3.95653
4.58042
5.38619
6.49169
8.34648
12.4121
22.4984
48.4118
142.687
10.5683
10.4941
10.016
9.12053
8.0536
6.96838
5.94325
5.02921
4.26353
3.66512
3.22291
2.9022
2.66469
2.48404
2.34629
2.2451
2.17892
2.15039
2.16346
2.2195
2.32276
2.4792
2.69679
2.98623
3.36128
3.839
4.44695
5.2153
6.19801
7.68271
10.8804
19.6994
45.8412
142.872
10.501
10.4316
9.92194
8.99647
7.92416
6.84773
5.83484
4.9364
4.18723
3.60229
3.16907
2.85391
2.61972
2.44089
2.30363
2.20156
2.1331
2.10137
2.11131
2.16409
2.26362
2.41568
2.62828
2.91254
3.28283
3.75582
4.3582
5.11478
6.04023
7.28572
9.74928
17.0234
42.3525
143.05
10.4409
10.3779
9.84237
8.89258
7.8182
6.7523
5.75201
4.86792
4.13281
3.55864
3.13219
2.82108
2.58939
2.41207
2.2754
2.17288
2.103
2.06922
2.07732
2.12816
2.22533
2.37443
2.58361
2.86452
3.23256
3.70478
4.30761
5.06593
5.97604
7.09442
9.02551
14.7291
38.3013
143.199
10.3872
10.3326
9.77692
8.80786
7.73398
6.68021
5.69299
4.8222
4.09896
3.53314
3.11145
2.80302
2.57303
2.39699
2.26116
2.15885
2.08877
2.05445
2.0622
2.11245
2.20854
2.35608
2.56344
2.84296
3.21124
3.68619
4.294
5.06083
5.97756
7.04685
8.65089
12.9952
34.035
143.306
10.3391
10.2951
9.72518
8.74133
7.66991
6.62975
5.65628
4.79797
4.08449
3.52494
3.10634
2.79941
2.57018
2.39526
2.26087
2.16
2.09153
2.05881
2.0675
2.11815
2.21425
2.36158
2.56886
2.84921
3.22051
3.70196
4.31932
5.09885
6.03179
7.09677
8.53705
11.8879
29.9546
143.363
10.296
10.2651
9.68669
8.69204
7.62444
6.59917
5.64024
4.79394
4.08607
3.532
3.11649
2.81103
2.58331
2.40975
2.27687
2.17813
2.11208
2.08195
2.0922
2.14412
2.24155
2.39054
2.60031
2.88495
3.26378
3.75762
4.38933
5.18345
6.13637
7.2194
8.60458
11.3752
26.5003
143.372
10.2573
10.2423
9.66072
8.65882
7.5949
6.58453
5.64013
4.80618
4.10879
3.56021
3.14652
2.84129
2.61357
2.44051
2.30907
2.21256
2.14899
2.12154
2.134
2.18817
2.28821
2.44048
2.65487
2.94665
3.3368
3.848
4.50212
5.32046
6.29892
7.41031
8.80765
11.3986
24.3398
143.341
10.2227
10.224
9.64387
8.63891
7.58071
6.58673
5.6593
4.83946
4.153
3.60969
3.19693
2.89064
2.6617
2.48843
2.35794
2.26329
2.20214
2.17764
2.19299
2.25065
2.35481
2.5122
2.73363
3.03595
3.44207
3.97653
4.66028
5.51002
6.51824
7.6605
9.08111
11.5998
23.7082
143.281
10.1925
10.2107
9.63605
8.63244
7.58102
6.60455
5.69661
4.89307
4.21857
3.68084
3.26872
2.96017
2.72893
2.5548
2.42473
2.33146
2.27261
2.25159
2.27086
2.33325
2.44316
2.60772
2.83908
3.15618
3.58416
4.14933
4.87129
5.76053
6.80301
7.97765
9.42513
11.897
23.2864
143.2
10.1676
10.2033
9.6374
8.63979
7.59545
6.63625
5.75095
4.96635
4.3055
3.77426
3.36283
3.05164
2.8175
2.64169
2.51142
2.41922
2.36266
2.34581
2.37016
2.43856
2.55579
2.72982
2.9747
3.31204
3.76952
4.37489
5.14553
6.08347
7.16461
8.37174
9.84491
12.263
23.0112
143.106
10.1494
10.2033
9.64835
8.66071
7.62397
6.68132
5.82139
5.05876
4.41376
3.89068
3.48053
3.16691
2.92994
2.75204
2.62108
2.52977
2.47568
2.46379
2.49427
2.56986
2.69583
2.88205
3.14518
3.51014
4.00724
4.66502
5.49701
6.49361
7.61695
8.85418
10.346
12.681
22.8678
143.003
10.14
10.2127
9.66969
8.69502
7.66688
6.73979
5.90718
5.16956
4.54308
4.0304
3.62321
3.30827
3.06902
2.88925
2.75756
2.66721
2.61593
2.60983
2.64725
2.7309
2.86721
3.06901
3.35712
3.75993
4.31026
5.03618
5.94456
7.00954
8.1763
9.4355
10.9319
13.1613
22.8306
142.895
10.1422
10.234
9.7028
8.74266
7.72543
6.81315
6.00742
5.29794
4.69305
4.19328
3.79201
3.4782
3.23787
3.05697
2.92506
2.83607
2.78835
2.78866
2.83338
2.92581
3.07469
3.29735
3.62017
4.07552
4.69752
5.51163
6.51335
7.65414
8.86086
10.1281
11.6042
13.6839
22.8559
142.791
10.1604
10.2711
9.7499
8.8047
7.80213
6.9056
6.12401
5.44301
4.86244
4.37974
3.98838
3.67889
3.43967
3.25894
3.12769
3.04083
2.99895
3.00505
3.05678
3.15911
3.32478
3.57736
3.94975
4.47845
5.19704
6.12406
7.23609
8.45474
9.69097
10.9406
12.3532
14.2136
22.9118
142.689
10.1993
10.3288
9.8144
8.884
7.8992
7.02007
6.26104
5.60808
5.05388
4.59173
4.214
3.91229
3.67686
3.49818
3.3688
3.28479
3.25027
3.2617
3.32112
3.4368
3.62775
3.92593
4.37122
5.00265
5.85068
6.91876
8.15359
9.44218
10.6784
11.8729
13.157
14.6991
22.9643
142.594
10.2664
10.4141
9.90168
8.98624
8.02073
7.15935
6.42354
5.79855
5.27162
4.83227
4.47126
4.18058
3.95172
3.77719
3.65108
3.57055
3.54236
3.56132
3.63248
3.76995
4.00234
4.37238
4.92611
5.70188
6.71995
7.95649
9.31456
10.6493
11.8525
12.9229
13.9634
15.0651
23.0014
142.511
10.3734
10.5364
10.0218
9.12342
8.17415
7.33123
6.61917
6.02197
5.52252
5.10709
4.76482
4.48775
4.26806
4.09992
3.97882
3.9032
3.88339
3.91409
4.00548
4.18127
4.48404
4.96867
5.68349
6.65935
7.89356
9.31483
10.7741
12.11
13.2175
14.0467
14.6759
15.216
23.0269
142.476
10.5372
10.7123
10.2032
9.30993
8.37319
7.54868
6.86054
6.29062
5.81816
5.4268
5.10434
4.84278
4.63466
4.47533
4.36163
4.29459
4.28851
4.34004
4.46918
4.71535
5.13993
5.80735
6.75884
8.00442
9.4941
11.0871
12.5913
13.8518
14.7456
15.1427
15.1398
15.0512
23.0846
142.458
10.7859
10.9861
10.4779
9.56861
8.63806
7.83063
7.1659
6.62237
6.17606
5.80864
5.50692
5.26258
5.06827
4.92021
4.81736
4.77287
4.78693
4.87755
5.08173
5.46184
6.09897
7.05452
8.34535
9.9329
11.6828
13.3797
14.8235
15.8704
16.3311
15.9988
15.1284
14.5526
23.6938
142.433
11.1836
11.4091
10.8847
9.92952
8.99651
8.20361
7.56115
7.04317
6.62279
6.2802
6.00114
5.77548
5.59674
5.46227
5.37444
5.35901
5.42312
5.60595
5.97228
6.6128
7.61758
9.01745
10.7678
12.728
14.6562
16.3029
17.4957
18.0625
17.7069
16.2491
14.4103
14.0765
27.9519
142.402
11.8254
12.0525
11.4822
10.4406
9.49526
8.71369
8.09285
7.60154
7.20975
6.89524
6.64133
6.43527
6.27469
6.15992
6.10648
6.16009
6.35055
6.7523
7.468
8.60844
10.2293
12.2615
14.5285
16.7548
18.6309
19.9343
20.509
20.099
18.3672
15.4098
13.0604
15.7078
34.8372
142.374
12.8645
13.0455
12.3889
11.2042
10.2363
9.4652
8.87092
8.41403
8.05844
7.77884
7.55381
7.37661
7.24899
7.18246
7.24862
7.49772
8.02214
8.94497
10.395
12.4364
14.9672
17.7125
20.331
22.4557
23.8014
24.1902
23.4508
21.278
17.5616
13.2323
12.332
18.7042
38.7803
142.342
14.765
14.7187
13.9059
12.5036
11.508
10.7581
10.2173
9.82887
9.53895
9.32424
9.1641
9.06313
9.03184
9.14638
9.59546
10.4555
11.874
13.9843
16.8165
20.1951
23.6947
26.8118
29.1474
30.3471
30.1798
28.5296
25.3591
20.4688
14.6042
11.4607
13.1849
19.8745
38.9316
142.315
18.4207
17.9103
17.0162
15.4824
14.5943
14.0084
13.6785
13.513
13.4248
13.3994
13.4451
13.5918
13.925
14.9848
16.7557
19.3413
22.8205
27.1005
31.7908
36.2646
39.8111
41.945
42.4625
40.8843
37.1056
31.3652
24.565
17.6304
14.7803
14.3368
15.8857
20.926
37.4077
142.3
35.8623
30.2826
30.5891
30.4056
30.3375
30.4253
30.7449
31.2233
31.8089
32.4506
33.1604
34.5821
37.7073
41.6725
46.4315
52.04
58.0809
63.7933
68.4262
71.4342
72.271
70.0348
64.8421
56.5604
46.599
38.1794
36.0541
35.3187
35.0548
35.0088
34.8201
36.0907
45.7694
142.295
213.05
209.296
206.686
205.27
205.037
205.022
204.997
205.002
205.026
205.047
205.049
205.024
204.959
204.834
204.633
204.337
203.931
203.416
202.838
202.288
201.89
201.692
201.625
201.625
201.624
201.621
201.619
201.616
201.614
201.614
201.613
201.611
201.609
171.951
168.204
51.4026
23.7295
14.3375
10.5784
8.83471
168.452
45.413
19.9364
12.4989
9.79178
8.60056
168.658
39.826
17.2129
11.542
9.61959
8.91694
168.826
35.0998
15.5581
11.2913
9.97507
9.60653
168.969
31.6935
14.9866
11.5697
10.602
10.5286
169.109
30.1235
15.0818
12.0748
11.3624
11.5016
169.242
29.9174
15.4058
12.6974
12.2004
12.4615
169.348
29.8596
15.8224
13.3909
13.1034
13.3971
169.432
29.8814
16.2986
14.1097
13.9513
14.2581
169.498
29.962
16.8278
14.9012
14.7462
14.9967
169.546
30.0934
17.3573
15.6037
15.445
15.5772
169.559
30.2959
17.9281
16.2403
16.02
15.9814
169.528
30.5408
18.4233
16.7852
16.4514
16.2088
169.504
30.8474
18.8666
17.2228
16.7331
16.2733
169.496
31.0806
19.2316
17.5414
16.8696
16.1973
169.69
31.3202
19.5153
17.7384
16.8737
16.0072
169.998
31.5501
19.7167
17.8192
16.7632
15.731
170.321
31.7568
19.8362
17.7942
16.5585
15.3936
170.65
31.9328
19.8761
17.6765
16.2794
15.016
170.983
32.0725
19.8442
17.481
15.9447
14.619
171.298
32.2004
19.753
17.2235
15.5719
14.2175
171.599
32.324
19.6136
16.9193
15.1795
13.8244
171.889
32.4442
19.436
16.5829
14.7831
13.4473
172.168
32.5635
19.2307
16.2275
14.3923
13.0895
172.435
32.6856
19.008
15.8673
14.0151
12.754
172.692
32.8129
18.7775
15.5136
13.6582
12.4424
172.937
32.9541
18.5475
15.1721
13.3229
12.1568
173.17
33.1192
18.3226
14.8447
13.009
11.8978
173.388
33.3088
18.109
14.5344
12.7177
11.6625
173.591
33.5228
17.9106
14.2433
12.4478
11.4494
173.776
33.761
17.7304
13.9727
12.1996
11.2599
173.943
34.0233
17.5699
13.7223
11.9722
11.0947
174.089
34.3086
17.4297
13.4861
11.7639
10.947
174.215
34.6156
17.3091
13.2637
11.5729
10.8147
174.318
34.9414
17.207
13.0622
11.3973
10.6957
174.399
35.2622
17.1226
12.8798
11.2355
10.588
174.455
35.5909
17.055
12.7144
11.086
10.4895
174.488
36.1363
17.0069
12.5645
10.9472
10.3989
174.496
36.8423
16.9794
12.4284
10.8172
10.3149
174.478
37.6192
16.9888
12.3052
10.6957
10.2366
174.435
38.3923
17.0462
12.1945
10.5824
10.1637
174.369
39.1212
17.1245
12.101
10.4779
10.0965
174.283
39.7641
17.2078
12.0193
10.3835
10.0357
174.183
40.2785
17.2801
11.9446
10.2984
9.98135
174.072
40.6197
17.3233
11.8712
10.2216
9.93398
173.958
40.7404
17.3178
11.7927
10.152
9.89444
173.849
40.5946
17.2378
11.707
10.0882
9.8641
173.753
40.0811
17.1081
11.6167
10.033
9.84589
173.676
39.4573
16.9405
11.5203
9.98848
9.84502
173.626
38.7563
16.7325
11.4174
9.95833
9.86884
173.613
37.9505
16.483
11.31
9.94872
9.9279
173.647
37.0259
16.1901
11.204
9.96987
10.0386
173.738
35.974
15.8593
11.1132
10.0396
10.2279
173.896
34.8199
15.4955
11.0592
10.1925
10.5413
174.132
33.5883
15.1303
11.0782
10.4876
11.0672
174.456
32.3408
14.8107
11.225
11.0453
11.9645
174.88
31.2364
14.5996
11.6156
12.0907
13.6342
175.416
30.3841
14.5789
12.4799
14.1967
16.9203
176.076
29.8434
14.9665
14.5305
19.6868
28.6551
176.863
29.6817
16.7825
23.2736
49.7464
112.338
177.557
29.7188
18.9184
31.4734
71.5964
180.26
178.316
29.9958
21.0642
37.5921
81.9763
180.56
179.13
30.4669
22.9235
41.8313
86.7648
179.559
202.018
201.763
201.816
201.859
201.875
201.915
201.941
201.945
201.929
201.9
201.867
201.826
201.773
201.716
201.667
201.634
201.617
201.611
201.608
201.608
201.608
201.608
201.608
201.608
201.608
201.608
201.608
201.608
201.608
201.608
201.608
201.608
201.608
171.951
62.0169
35.7867
31.8321
30.2918
29.4544
29.1677
29.2628
29.7244
30.5379
31.7081
34.9556
40.1018
44.9055
48.5959
50.4118
49.9518
47.6905
44.6449
41.4402
38.4344
36.3288
35.0902
34.8833
34.8124
34.7767
34.7509
34.7176
34.6432
34.5528
34.4718
34.5084
35.2105
42.1762
142.294
36.4219
16.4042
13.2221
12.2825
11.6257
11.1822
10.8547
10.6634
10.6389
10.8173
11.4045
13.3156
16.2804
19.6431
22.6228
24.5033
24.9929
24.1823
22.2786
19.6036
16.7813
14.4372
12.961
12.2901
12.0038
11.9057
11.8374
11.7392
11.669
11.7269
12.2419
14.6066
27.5592
142.294
28.0674
13.4514
10.6739
9.73126
8.92123
8.27625
7.71239
7.24412
6.89501
6.68813
6.67722
7.09272
8.25107
10.0867
12.3148
14.4237
15.9102
16.4876
16.0688
14.713
12.6806
10.4101
8.41798
7.02719
6.30404
5.95927
5.78322
5.71983
5.77545
6.13143
7.26351
10.8792
26.0203
142.294
26.345
13.7856
10.8709
9.65745
8.5525
7.67833
6.93158
6.30563
5.80644
5.44211
5.22763
5.21708
5.60916
6.48338
7.83467
9.46532
11.0055
12.0813
12.459
12.0534
10.9193
9.25912
7.41827
5.77876
4.60724
3.973
3.67217
3.61861
3.81308
4.43772
5.99825
10.222
25.9903
142.294
26.7203
15.0351
11.7332
10.1174
8.66664
7.55923
6.65714
5.92046
5.33218
4.88719
4.58588
4.44265
4.5399
4.95379
5.74273
6.87385
8.15512
9.27662
9.97114
10.0804
9.57702
8.52684
7.09688
5.53875
4.23636
3.35255
2.8909
2.7867
3.05383
3.82763
5.61166
10.1207
26.132
142.294
27.7623
16.4984
12.7388
10.6829
8.89728
7.56503
6.53032
5.70835
5.0558
4.55717
4.20769
4.00852
3.99192
4.20126
4.68645
5.46623
6.45713
7.44753
8.21089
8.5526
8.40967
7.79314
6.78011
5.48447
4.24788
3.28082
2.67803
2.46142
2.68906
3.48666
5.35333
10.0221
26.2386
142.294
29.0506
18.042
13.7772
11.2459
9.16405
7.62469
6.47983
5.5916
4.88703
4.34209
3.9547
3.72419
3.66241
3.78451
4.11557
4.67754
5.43384
6.25555
6.968
7.38528
7.43086
7.08035
6.37381
5.38307
4.3143
3.38578
2.71681
2.38379
2.46983
3.17762
5.01531
9.76043
26.1982
142.294
30.4064
19.518
14.7942
11.7812
9.43004
7.71537
6.48678
5.55154
4.80982
4.22813
3.8059
3.55001
3.46946
3.55701
3.81022
4.23813
4.82174
5.48642
6.1066
6.5238
6.6383
6.43853
5.93496
5.18894
4.31906
3.49973
2.84725
2.44673
2.37786
2.86798
4.55711
9.25508
25.8808
142.295
31.7086
20.9806
15.7822
12.2682
9.64755
7.80353
6.53724
5.58441
4.8256
4.2254
3.78322
3.50933
3.41858
3.48689
3.68895
4.02245
4.47651
5.00677
5.52432
5.89498
6.02483
5.89337
5.51046
4.93297
4.24794
3.56295
2.97992
2.57169
2.40796
2.69151
4.04583
8.49263
25.2405
142.295
32.9143
22.3721
16.7168
12.7102
9.83242
7.90651
6.63229
5.6969
4.95556
4.36879
3.93366
3.66016
3.56008
3.59733
3.74357
3.98986
4.32725
4.73231
5.1556
5.45737
5.5639
5.45299
5.13659
4.66931
4.1216
3.57365
3.08459
2.70737
2.50067
2.64525
3.73515
7.81057
24.2757
142.295
34.1103
23.6456
17.5663
13.1013
9.99708
8.03857
6.80307
5.92431
5.24309
4.7096
4.31118
4.05195
3.94312
3.94208
4.02844
4.19058
4.41825
4.69434
4.98454
5.20501
5.27026
5.14668
4.85756
4.45431
4.00065
3.55662
3.15748
2.82834
2.61731
2.67741
3.55351
7.34032
23.6594
142.295
35.2033
24.7613
18.303
13.4335
10.162
8.22647
7.06848
6.28647
5.711
5.28026
4.96799
4.7663
4.67541
4.65284
4.69234
4.78221
4.90985
5.05994
5.20875
5.30921
5.30131
5.12731
4.81955
4.42953
4.01005
3.61021
3.25493
2.95994
2.75223
2.75935
3.47662
6.96502
23.1257
142.295
36.0954
25.728
18.9137
13.7032
10.3445
8.48423
7.4464
6.80452
6.38244
6.10736
5.9433
5.87379
5.84824
5.86692
5.92138
5.9967
6.0767
6.14493
6.18193
6.15945
6.04273
5.78537
5.37449
4.89485
4.39997
3.93095
3.5247
3.18746
2.93967
2.88785
3.47795
6.7009
22.6504
142.296
36.7402
26.572
19.3934
13.9347
10.5608
8.82636
7.95004
7.48668
7.25696
7.18006
7.20906
7.31172
7.42205
7.55864
7.70876
7.85331
7.9723
8.04571
8.05068
7.95731
7.74039
7.37428
6.8243
6.1212
5.38933
4.69508
4.08677
3.595
3.22614
3.07356
3.54649
6.5634
22.2926
142.296
37.1855
27.2058
19.7185
14.1232
10.8184
9.26148
8.58023
8.32115
8.30343
8.44114
8.68103
8.93568
9.21392
9.5101
9.80536
10.0785
10.3087
10.4761
10.5541
10.4835
10.2305
9.76593
9.06929
8.1451
7.04116
5.95496
4.99887
4.22365
3.64182
3.32545
3.67292
6.54129
22.1167
142.298
37.4638
27.6157
19.884
14.2386
11.1132
9.78708
9.32243
9.27363
9.4622
9.80079
10.1788
10.5898
11.0305
11.4827
11.9265
12.3436
12.7219
13.0075
13.1487
13.139
12.9455
12.529
11.8492
10.8585
9.49922
7.8324
6.33449
5.10334
4.20089
3.64626
3.84909
6.62445
22.1332
142.3
37.5891
27.8052
19.8997
14.3208
11.453
10.3892
10.1444
10.2909
10.659
11.0921
11.5838
12.1184
12.6742
13.2284
13.759
14.245
14.6661
14.9931
15.2223
15.3318
15.2833
15.0242
14.4909
13.6175
12.3496
10.6447
8.45809
6.42833
4.9798
4.07094
4.08189
6.80606
22.3334
142.302
37.5719
27.786
19.7655
14.3873
11.8367
11.0377
10.9918
11.2777
11.6798
12.1715
12.7174
13.2881
13.858
14.4059
14.9142
15.3671
15.7495
16.0963
16.4166
16.6948
16.8935
16.9514
16.7819
16.2722
15.3019
13.7661
11.6101
8.80429
6.2714
4.74188
4.41328
7.08249
22.6719
142.305
37.4157
27.5723
19.5431
14.4606
12.2464
11.6716
11.7197
11.9914
12.3811
12.8295
13.2943
13.7463
14.1681
14.5535
14.9057
15.2337
15.5475
15.9016
16.3214
16.7971
17.2981
17.7678
18.123
18.2306
17.9105
16.9518
15.1519
12.4063
8.78178