/*--------------------------------*- C++ -*----------------------------------*\
| =========                 |                                                 |
| \\      /  F ield         | OpenFOAM: The Open Source CFD Toolbox           |
|  \\    /   O peration     | Version:  v2012                                 |
|   \\  /    A nd           | Website:  www.openfoam.com                      |
|    \\/     M anipulation  |                                                 |
\*---------------------------------------------------------------------------*/
FoamFile
{
    version     2.0;
    format      ascii;
    class       volScalarField;
    location    "565";
    object      p;
}
// * * * * * * * * * * * * * * * * * * * * * * * * * * * * * * * * * * * * * //

dimensions      [0 2 -2 0 0 0 0];


internalField   nonuniform List<scalar> 
6018
(
1.24647
1.24602
1.2464
1.24759
1.24978
1.253
1.25719
1.26219
1.26788
1.27409
1.28067
1.28751
1.29456
1.30185
1.30942
1.31706
1.32448
1.33317
1.34907
1.37425
1.24202
1.24162
1.24246
1.2444
1.24736
1.25125
1.25596
1.26137
1.26736
1.27382
1.28064
1.2876
1.29467
1.30194
1.30939
1.31681
1.32392
1.33138
1.34165
1.35354
1.23239
1.23341
1.23563
1.23887
1.243
1.24787
1.25336
1.25938
1.26583
1.27266
1.27973
1.28674
1.29382
1.30122
1.3087
1.31597
1.323
1.33048
1.33856
1.34303
1.22164
1.22432
1.22817
1.2329
1.23831
1.24423
1.25057
1.25724
1.26417
1.27131
1.27855
1.28578
1.2931
1.30059
1.30801
1.31513
1.32205
1.32921
1.33567
1.33829
1.20965
1.21426
1.21998
1.22639
1.23322
1.24032
1.24759
1.25499
1.26248
1.27002
1.27755
1.28506
1.29261
1.30018
1.30761
1.3147
1.3216
1.32846
1.33406
1.33617
1.19643
1.20339
1.21134
1.21966
1.22805
1.2364
1.24466
1.25281
1.26088
1.26883
1.27667
1.28443
1.29217
1.29988
1.30739
1.31455
1.32148
1.32837
1.33399
1.33611
1.18185
1.19193
1.20254
1.21302
1.22308
1.23271
1.24195
1.25086
1.25948
1.26784
1.27596
1.28391
1.29183
1.29971
1.30737
1.31466
1.32171
1.32895
1.33547
1.3381
1.16642
1.18005
1.19388
1.20677
1.21861
1.2295
1.23967
1.2493
1.25849
1.26725
1.27563
1.28372
1.29177
1.29982
1.30768
1.31523
1.32246
1.33007
1.33824
1.34275
1.1482
1.16772
1.18559
1.20114
1.21472
1.22676
1.23776
1.24799
1.25763
1.26677
1.27548
1.28384
1.29199
1.30007
1.30809
1.31589
1.32326
1.33087
1.34125
1.35318
1.13022
1.15879
1.18009
1.19729
1.21183
1.22467
1.23623
1.24683
1.2567
1.26599
1.27483
1.28333
1.29159
1.29976
1.30796
1.31605
1.32376
1.33262
1.34862
1.37384
1.32033
1.31906
1.31783
1.31706
1.31682
1.31701
1.31739
1.31781
1.31822
1.31856
1.31877
1.31857
1.31784
1.31671
1.31539
1.31413
1.313
1.31185
1.31045
1.30863
1.30635
1.30369
1.30059
1.29676
1.29204
1.28635
1.27969
1.27262
1.2661
1.26087
1.25696
1.25366
1.25061
1.24807
1.31973
1.31837
1.31721
1.31662
1.31666
1.31706
1.31756
1.31801
1.31838
1.31864
1.31877
1.31842
1.31758
1.3164
1.31516
1.31405
1.31306
1.31202
1.31076
1.30912
1.30693
1.30437
1.30172
1.2985
1.29401
1.28828
1.2814
1.27388
1.26663
1.26041
1.25538
1.25096
1.24694
1.24381
1.31773
1.31623
1.31522
1.31504
1.31571
1.31675
1.31774
1.31848
1.31896
1.31919
1.31913
1.31848
1.31734
1.316
1.31489
1.31413
1.31348
1.31265
1.31165
1.31034
1.30829
1.30558
1.30239
1.2983
1.29269
1.28538
1.27668
1.26735
1.25818
1.25001
1.24343
1.23831
1.23465
1.23271
1.31383
1.31216
1.31145
1.31197
1.31367
1.31582
1.31786
1.31942
1.32037
1.32067
1.32021
1.31912
1.31756
1.31611
1.31516
1.31469
1.31437
1.31384
1.3129
1.31125
1.30832
1.30384
1.29797
1.29071
1.28203
1.27222
1.26176
1.25149
1.24219
1.23439
1.22831
1.22386
1.22116
1.22045
1.30813
1.30642
1.30629
1.30786
1.31083
1.31442
1.31793
1.32074
1.32241
1.32273
1.32173
1.32008
1.31823
1.31684
1.31617
1.31592
1.31552
1.31445
1.31228
1.30845
1.30254
1.29468
1.28535
1.27504
1.26419
1.25324
1.2426
1.23276
1.22414
1.217
1.21148
1.20769
1.20599
1.20669
1.30159
1.30012
1.30075
1.30337
1.30762
1.31273
1.31781
1.32191
1.32421
1.32447
1.32319
1.32132
1.31949
1.31822
1.31748
1.31654
1.31469
1.3114
1.30614
1.29859
1.289
1.27803
1.2664
1.25463
1.24309
1.23208
1.2218
1.21248
1.20442
1.19788
1.19296
1.18975
1.18903
1.19136
1.29524
1.29446
1.29583
1.29932
1.3046
1.31095
1.31729
1.32228
1.32489
1.32526
1.32427
1.32269
1.32103
1.31935
1.31731
1.31426
1.30947
1.30249
1.29325
1.28214
1.2698
1.25699
1.24429
1.232
1.22035
1.20952
1.19966
1.19086
1.18329
1.17725
1.17285
1.17004
1.17008
1.17407
1.29033
1.29014
1.29205
1.29611
1.30206
1.30915
1.31611
1.32138
1.32425
1.32517
1.32485
1.32356
1.32139
1.3183
1.3138
1.30739
1.29864
1.28771
1.27513
1.26157
1.24767
1.23393
1.22076
1.20829
1.19656
1.18584
1.17633
1.16795
1.16064
1.15479
1.15091
1.14877
1.14898
1.15469
1.28693
1.28717
1.28942
1.2938
1.3
1.30723
1.31415
1.3194
1.32265
1.32425
1.32425
1.32254
1.31897
1.31341
1.30548
1.29512
1.28268
1.26873
1.25397
1.239
1.22421
1.2098
1.19615
1.18337
1.17132
1.16068
1.15178
1.14404
1.13725
1.13176
1.12849
1.12718
1.1262
1.13017
1.28492
1.28542
1.28785
1.29226
1.29828
1.30513
1.31156
1.31663
1.32014
1.32193
1.3215
1.31843
1.31249
1.30363
1.29211
1.27844
1.26336
1.24749
1.23131
1.21531
1.19974
1.18461
1.17065
1.15806
1.14662
1.13669
1.1283
1.12107
1.11457
1.10907
1.10629
1.10635
1.10311
1.09768
1.31883
1.31898
1.31948
1.32025
1.32093
1.32104
1.31872
1.31882
1.31924
1.31995
1.32058
1.32058
1.31839
1.31855
1.31893
1.31945
1.31965
1.31907
1.31793
1.31828
1.31858
1.31849
1.31762
1.31592
1.3174
1.31798
1.31788
1.31642
1.31383
1.31083
1.31674
1.31741
1.31627
1.31276
1.30825
1.30441
1.316
1.31631
1.31338
1.30784
1.30226
1.29798
1.31534
1.31456
1.30939
1.30252
1.29667
1.2926
1.31453
1.31205
1.305
1.2978
1.29232
1.28873
1.31281
1.3089
1.30118
1.29433
1.28947
1.28636
1.2842
1.28475
1.28714
1.29129
1.29678
1.30284
1.30853
1.31318
1.31634
1.31739
1.31545
1.30994
1.30086
1.28869
1.27421
1.25823
1.24145
1.22433
1.20708
1.19036
1.17455
1.1595
1.14535
1.13237
1.12106
1.11158
1.10392
1.09808
1.09382
1.09118
1.09061
1.09157
1.08855
1.07637
1.28474
1.28517
1.2873
1.29089
1.2955
1.3005
1.30518
1.30884
1.31068
1.30978
1.30521
1.29664
1.28453
1.26974
1.25322
1.23584
1.21804
1.20031
1.18268
1.1653
1.14878
1.13343
1.11974
1.10856
1.10007
1.09402
1.09023
1.08832
1.08777
1.08812
1.08896
1.08952
1.08849
1.08472
1.28653
1.28668
1.28827
1.291
1.29447
1.29816
1.3014
1.30331
1.30288
1.29914
1.29145
1.27998
1.26556
1.24909
1.23136
1.2134
1.19518
1.17674
1.15878
1.14171
1.12618
1.11281
1.10217
1.09459
1.08979
1.08717
1.08618
1.0861
1.08639
1.08689
1.08755
1.08813
1.08845
1.08819
1.28962
1.28925
1.29002
1.29161
1.29368
1.29571
1.29691
1.29629
1.29284
1.28585
1.27513
1.26121
1.24524
1.22798
1.20988
1.19152
1.17327
1.15545
1.13866
1.12359
1.11081
1.10074
1.09348
1.08885
1.08631
1.0852
1.08491
1.0851
1.08564
1.08643
1.08738
1.08843
1.08951
1.09018
1.29404
1.29288
1.29251
1.29262
1.29296
1.29284
1.29137
1.28756
1.28068
1.27049
1.25712
1.2413
1.22474
1.20745
1.18941
1.17177
1.15483
1.13906
1.12488
1.11275
1.10293
1.09549
1.09031
1.0871
1.08535
1.08462
1.08457
1.08498
1.08578
1.0868
1.08792
1.08925
1.09071
1.09162
1.29969
1.2974
1.29551
1.29378
1.29194
1.28914
1.28444
1.27704
1.26669
1.25368
1.23843
1.22203
1.20509
1.18801
1.17153
1.15598
1.14167
1.12884
1.11761
1.10805
1.10025
1.09424
1.08994
1.08711
1.08552
1.0849
1.08493
1.08541
1.08623
1.08723
1.08837
1.08986
1.09152
1.09247
1.3062
1.30243
1.29862
1.29462
1.29013
1.28417
1.2759
1.26492
1.25132
1.23622
1.22003
1.20343
1.18706
1.17173
1.15778
1.14525
1.13412
1.12419
1.11528
1.10737
1.10062
1.09511
1.0909
1.08802
1.08632
1.08553
1.08538
1.08571
1.08636
1.08726
1.0884
1.08995
1.09165
1.09261
1.31328
1.30768
1.30154
1.29481
1.28715
1.27769
1.26588
1.25148
1.2347
1.21882
1.20225
1.18641
1.17201
1.15945
1.14869
1.13944
1.13119
1.12348
1.11606
1.109
1.10252
1.09692
1.09245
1.08923
1.08712
1.0859
1.08542
1.08546
1.08593
1.08672
1.08783
1.08938
1.09107
1.09206
1.32078
1.31302
1.30409
1.29411
1.28285
1.26969
1.25403
1.23599
1.21899
1.20201
1.18601
1.17207
1.16048
1.15119
1.14372
1.13736
1.13134
1.1251
1.11848
1.11162
1.10493
1.09884
1.09379
1.09004
1.08731
1.08566
1.0849
1.08468
1.08496
1.08565
1.08673
1.08825
1.08989
1.09094
1.32835
1.31797
1.30582
1.29214
1.27686
1.25953
1.23991
1.22141
1.20397
1.18638
1.17208
1.16077
1.15237
1.1463
1.14171
1.1376
1.13313
1.12777
1.12144
1.11436
1.10707
1.10003
1.09427
1.08997
1.08685
1.08493
1.08391
1.08352
1.08367
1.0843
1.08535
1.08682
1.08839
1.08952
1.33536
1.32187
1.3061
1.28845
1.269
1.24793
1.22681
1.20732
1.18817
1.1724
1.16062
1.15232
1.14702
1.14375
1.1414
1.13894
1.13552
1.13066
1.12427
1.11653
1.1084
1.10061
1.094
1.08911
1.08589
1.08396
1.08288
1.0824
1.08246
1.08301
1.08402
1.08543
1.08691
1.08801
1.34111
1.3241
1.30454
1.28287
1.25918
1.23435
1.21304
1.19133
1.17366
1.16045
1.15149
1.14615
1.14352
1.14243
1.14177
1.14053
1.13786
1.13322
1.12643
1.11796
1.10881
1.10025
1.09326
1.08829
1.08512
1.08324
1.08215
1.08162
1.0816
1.08206
1.083
1.0843
1.0857
1.08659
1.34492
1.32411
1.30049
1.2746
1.24712
1.2204
1.19686
1.17642
1.16109
1.1505
1.14428
1.14148
1.14092
1.14146
1.14205
1.1417
1.13951
1.13474
1.12738
1.11821
1.10851
1.09967
1.09262
1.08771
1.08465
1.08286
1.08182
1.08127
1.08119
1.08157
1.08242
1.08361
1.08492
1.08556
1.34611
1.32145
1.29385
1.26402
1.23336
1.20693
1.18214
1.16341
1.1503
1.14225
1.1384
1.13753
1.13845
1.14012
1.14157
1.14167
1.13944
1.13434
1.12665
1.11735
1.10769
1.09896
1.09207
1.08732
1.08441
1.08274
1.08178
1.08129
1.08123
1.08156
1.0823
1.08338
1.08452
1.085
1.34421
1.31585
1.28434
1.25055
1.21939
1.1919
1.1685
1.15183
1.14099
1.13519
1.13316
1.13361
1.13545
1.13774
1.13936
1.13919
1.13652
1.13127
1.12388
1.11517
1.10618
1.09801
1.09151
1.08701
1.08429
1.08278
1.08199
1.08164
1.08166
1.08199
1.08265
1.08357
1.08444
1.08473
1.33904
1.30715
1.2724
1.23651
1.20498
1.17703
1.15583
1.14143
1.13281
1.1288
1.12798
1.12915
1.13129
1.13342
1.13437
1.13339
1.13035
1.1254
1.11888
1.11134
1.10356
1.09642
1.09067
1.08664
1.08421
1.08294
1.08239
1.08227
1.08243
1.08279
1.08336
1.08404
1.08458
1.08465
1.3306
1.29543
1.25797
1.22228
1.18988
1.16325
1.14433
1.13211
1.12535
1.12257
1.12237
1.12359
1.12526
1.12642
1.12622
1.1244
1.12124
1.11687
1.11149
1.10546
1.0993
1.09367
1.08911
1.08592
1.08402
1.08313
1.08291
1.08307
1.0834
1.08379
1.0842
1.08457
1.08476
1.08468
1.31914
1.28133
1.24127
1.2061
1.17466
1.15052
1.1339
1.12363
1.11826
1.11618
1.11589
1.11647
1.11703
1.11679
1.11542
1.11302
1.1099
1.10614
1.1019
1.09744
1.09308
1.08921
1.08626
1.08437
1.0834
1.08315
1.08338
1.08386
1.08437
1.08475
1.08494
1.08497
1.08489
1.08474
1.30484
1.26513
1.22527
1.19011
1.16043
1.1388
1.12434
1.11564
1.11112
1.10914
1.10831
1.10779
1.1069
1.10529
1.10298
1.10023
1.09721
1.09399
1.09069
1.08761
1.08501
1.08297
1.08171
1.08143
1.08185
1.08264
1.08356
1.08444
1.08511
1.08544
1.08544
1.08521
1.08497
1.08482
1.28829
1.24696
1.20941
1.17464
1.14734
1.12806
1.11552
1.10803
1.10367
1.10124
1.09961
1.09776
1.0955
1.09278
1.08983
1.08688
1.08399
1.08126
1.07872
1.07655
1.07534
1.07516
1.07552
1.07674
1.07881
1.08106
1.08308
1.0846
1.08551
1.0858
1.08567
1.08531
1.08502
1.08488
1.27041
1.22976
1.19266
1.15986
1.13523
1.11811
1.10709
1.1003
1.09592
1.09281
1.09001
1.08689
1.08351
1.08003
1.07668
1.07362
1.07088
1.06854
1.06667
1.06538
1.06498
1.06583
1.06773
1.0704
1.074
1.07796
1.08148
1.08408
1.08549
1.08586
1.08564
1.08528
1.085
1.08491
1.25122
1.21286
1.17617
1.14605
1.12395
1.10876
1.0989
1.09243
1.08781
1.08388
1.07986
1.07568
1.07151
1.06757
1.06402
1.06094
1.05835
1.0563
1.05489
1.05424
1.05453
1.05606
1.05907
1.06291
1.06756
1.0731
1.07836
1.08249
1.0849
1.08565
1.08548
1.08512
1.08488
1.08483
1.23133
1.19467
1.16039
1.13323
1.11343
1.09988
1.09085
1.08448
1.07933
1.07447
1.06951
1.06458
1.05991
1.05572
1.05208
1.04904
1.04662
1.04483
1.04377
1.04358
1.04439
1.04638
1.04978
1.05459
1.06023
1.06674
1.07364
1.07953
1.08346
1.08511
1.08523
1.08489
1.08466
1.08464
1.21209
1.17725
1.14575
1.12128
1.10354
1.09133
1.08286
1.07637
1.07062
1.06495
1.05928
1.05385
1.04892
1.04461
1.04096
1.03798
1.03571
1.03414
1.03337
1.03352
1.0347
1.03708
1.04077
1.04584
1.05217
1.0596
1.06762
1.07516
1.08094
1.08408
1.08489
1.08466
1.0844
1.08433
1.19431
1.16107
1.13221
1.11015
1.0942
1.08304
1.07489
1.06817
1.06185
1.05556
1.04941
1.0437
1.03863
1.03429
1.03066
1.02776
1.02563
1.02425
1.02373
1.02413
1.02559
1.02822
1.03214
1.03741
1.04404
1.05194
1.06074
1.06959
1.07721
1.08225
1.08431
1.08445
1.0841
1.08394
1.17694
1.14573
1.11963
1.09977
1.08533
1.07498
1.067
1.06001
1.05322
1.04648
1.04004
1.03419
1.02909
1.02476
1.02118
1.01836
1.01635
1.01515
1.01482
1.01544
1.01711
1.01993
1.024
1.02939
1.03616
1.04426
1.05349
1.06324
1.0724
1.07945
1.08324
1.08411
1.08371
1.08344
1.15966
1.13131
1.10792
1.09005
1.07689
1.06715
1.05925
1.05201
1.04486
1.03784
1.03126
1.02538
1.02029
1.01599
1.01247
1.00974
1.00785
1.0068
1.00664
1.00744
1.00929
1.01225
1.01643
1.02189
1.0287
1.03686
1.04628
1.05655
1.06681
1.07567
1.08149
1.08353
1.08328
1.08284
1.1438
1.11805
1.09709
1.081
1.06887
1.0596
1.05173
1.04429
1.0369
1.02974
1.02313
1.01727
1.01222
1.00797
1.00452
1.00188
1.0001
0.999178
0.99916
1.00012
1.0021
1.0052
1.00946
1.01496
1.02177
1.02992
1.03937
1.04989
1.0608
1.07105
1.07894
1.08261
1.08283
1.08212
1.12949
1.10593
1.08712
1.07256
1.06128
1.05237
1.04454
1.03696
1.02945
1.02225
1.01567
1.00987
1.00488
1.00069
0.997316
0.994764
0.993077
0.992271
0.992378
0.993462
0.995573
0.998767
1.0031
1.00863
1.01543
1.02352
1.03293
1.0435
1.05472
1.06584
1.07545
1.08119
1.08215
1.08123
1.11625
1.09489
1.07801
1.0647
1.05414
1.04555
1.03775
1.03011
1.02257
1.0154
1.0089
1.00318
0.99826
0.994145
0.990841
0.98837
0.986772
0.986067
0.986281
0.987475
0.98969
0.992973
0.997369
1.00293
1.0097
1.01773
1.02704
1.03759
1.04907
1.0606
1.07126
1.07912
1.08108
1.08011
1.10391
1.08487
1.06969
1.05742
1.04751
1.03919
1.03146
1.02383
1.01631
1.00923
1.00283
0.997203
0.992362
0.98832
0.985089
0.982693
0.981175
0.98056
0.980866
0.982154
0.984459
0.987819
0.992272
0.997855
1.00461
1.01258
1.02179
1.03226
1.04385
1.05562
1.06691
1.07641
1.0796
1.0788
1.09283
1.07586
1.06211
1.05077
1.04144
1.03336
1.02573
1.01816
1.01073
1.00377
0.997477
0.991945
0.987185
0.983215
0.980054
0.977728
0.976282
0.975746
0.976131
0.977501
0.979883
0.983311
0.987815
0.993425
1.00017
1.00809
1.01721
1.02757
1.03904
1.05091
1.06264
1.07314
1.0779
1.07753
1.08317
1.06785
1.05529
1.04479
1.03598
1.02814
1.02064
1.01317
1.00586
0.999021
0.992849
0.987413
0.982733
0.978832
0.975735
0.973473
0.972091
0.971622
0.972076
0.973516
0.975966
0.979456
0.984009
0.989648
0.996395
1.00428
1.01332
1.02355
1.0349
1.04696
1.05881
1.06973
1.07624
1.07659
1.07476
1.06081
1.0493
1.03955
1.03119
1.0236
1.01625
1.0089
1.00173
0.995018
0.988959
0.983614
0.979008
0.975171
0.972132
0.969925
0.968598
0.968188
0.968701
0.970201
0.972712
0.976258
0.980859
0.986531
0.993292
1.00116
1.01015
1.02027
1.03152
1.04376
1.05572
1.06678
1.07478
1.07601
1.06742
1.05474
1.04416
1.03508
1.02714
1.01978
1.01259
1.00539
0.998358
0.991777
0.985823
0.980559
0.976019
0.972235
0.969245
0.967085
0.965804
0.965443
0.966005
0.967558
0.970124
0.973722
0.978371
0.984084
0.990871
0.998743
1.00771
1.01777
1.02895
1.04112
1.05331
1.06447
1.0735
1.07567
1.06109
1.04962
1.03989
1.03143
1.02388
1.01675
1.00973
1.00268
0.995781
0.989316
0.983453
0.978258
0.97377
0.970029
0.967076
0.964952
0.963707
0.963383
0.963987
0.965587
0.968202
0.971851
0.976551
0.982312
0.98914
0.997039
1.00601
1.01606
1.02719
1.03929
1.05159
1.06289
1.07248
1.07552
1.05577
1.04547
1.0365
1.02863
1.02145
1.01454
1.0077
1.0008
0.994024
0.987658
0.981866
0.976721
0.972268
0.968554
0.965626
0.963526
0.962304
0.962009
0.962647
0.964288
0.966948
0.970648
0.975402
0.981219
0.988104
0.996056
1.00507
1.01514
1.02627
1.03837
1.05086
1.06219
1.07192
1.0757
1.05142
1.04224
1.03401
1.02671
1.01989
1.01321
1.00654
0.999774
0.993112
0.986822
0.981077
0.97596
0.971521
0.967816
0.964898
0.962807
0.961598
0.961323
0.961987
0.963662
0.966364
0.970114
0.974927
0.980811
0.98777
0.995801
1.0049
1.01504
1.02622
1.03842
1.05119
1.06253
1.07215
1.07634
1.04807
1.03993
1.03244
1.02571
1.01925
1.0128
1.00629
0.999647
0.993072
0.986829
0.981103
0.975985
0.971535
0.967822
0.964894
0.962792
0.961582
0.961313
0.961994
0.963699
0.966442
0.970244
0.975122
0.981085
0.988138
0.996277
1.00549
1.01577
1.02708
1.03942
1.05226
1.06397
1.07343
1.07769
1.0457
1.03856
1.03182
1.02566
1.01957
1.01333
1.00698
1.00045
0.993929
0.987698
0.981955
0.976803
0.972317
0.968573
0.965606
0.963474
0.962249
0.961974
0.962665
0.964393
0.967174
0.97103
0.975979
0.982032
0.989195
0.997468
1.00684
1.0173
1.02883
1.04138
1.0544
1.0666
1.07589
1.08018
1.04429
1.03817
1.03218
1.0266
1.02088
1.01486
1.00864
1.00219
0.995703
0.989449
0.983654
0.978436
0.973889
0.970074
0.967037
0.964859
0.963602
0.963306
0.963997
0.965743
0.968561
0.972473
0.977499
0.983652
0.990943
0.999373
1.00894
1.01963
1.03144
1.04433
1.05779
1.07037
1.07973
1.08394
1.04384
1.03877
1.03356
1.02855
1.02323
1.01743
1.01132
1.00492
0.998423
0.992106
0.986216
0.980895
0.976244
0.972314
0.969185
0.96694
0.96563
0.9653
0.965982
0.967741
0.970594
0.974564
0.979673
0.985937
0.99337
1.00198
1.01177
1.02274
1.03491
1.04824
1.0622
1.07513
1.08479
1.08905
1.04431
1.04039
1.036
1.03155
1.02665
1.02109
1.01504
1.00866
1.00211
0.995682
0.989648
0.984179
0.979374
0.975293
0.972045
0.969705
0.968325
0.967946
0.96861
0.970378
0.973267
0.977298
0.982494
0.988876
0.996461
1.00526
1.0153
1.02659
1.03919
1.0531
1.06762
1.08091
1.09094
1.09529
1.04571
1.04304
1.03954
1.03565
1.03118
1.02586
1.01984
1.01341
1.00676
1.00018
0.993955
0.988286
0.983271
0.979006
0.97561
0.973145
0.971674
0.971234
0.971874
0.973647
0.976571
0.980665
0.985954
0.992459
1.0002
1.0092
1.0195
1.03112
1.04422
1.05879
1.07392
1.08762
1.09778
1.10222
1.04804
1.04677
1.04424
1.04094
1.03687
1.03175
1.02573
1.01921
1.0124
1.0056
0.999138
0.993207
0.987931
0.983444
0.97986
0.977244
0.975663
0.97515
0.97576
0.977539
0.980498
0.984659
0.990043
0.996673
1.00457
1.01377
1.02432
1.03628
1.04988
1.06502
1.0808
1.09481
1.1049
1.10922
1.05132
1.05162
1.05016
1.04748
1.04375
1.03879
1.03275
1.02606
1.01902
1.01196
1.00519
0.998922
0.993337
0.988585
0.984774
0.981981
0.980275
0.979679
0.980258
0.982043
0.985042
0.989273
0.994755
1.00151
1.00956
1.01894
1.02973
1.04204
1.05619
1.07171
1.08786
1.10185
1.11169
1.11579
1.05557
1.05766
1.05739
1.05535
1.0519
1.04704
1.04093
1.03401
1.02667
1.01924
1.01206
1.0054
0.999455
0.994392
0.990319
0.987328
0.985485
0.984803
0.985352
0.987148
0.990194
0.994502
1.00008
1.00695
1.01514
1.02469
1.03569
1.04836
1.06304
1.07871
1.09464
1.10807
1.11732
1.12114
1.06086
1.06496
1.06601
1.06468
1.06145
1.0566
1.05034
1.04308
1.0353
1.02738
1.01971
1.01258
1.00623
1.00082
0.996455
0.99325
0.991262
0.990497
0.991025
0.992843
0.995946
1.00034
1.00602
1.01301
1.02132
1.031
1.04216
1.05508
1.0697
1.08551
1.10061
1.11276
1.12094
1.12436
1.06721
1.07362
1.07616
1.07558
1.07256
1.06758
1.06095
1.05318
1.04481
1.03629
1.02805
1.02041
1.0136
1.00779
1.00313
0.9997
0.997567
0.996735
0.997255
0.999111
1.00229
1.00678
1.01258
1.01968
1.0281
1.0379
1.04921
1.06219
1.07648
1.09169
1.10516
1.11537
1.12206
1.12487
1.07459
1.08373
1.08799
1.0882
1.0853
1.07997
1.07274
1.06426
1.05513
1.0459
1.03699
1.02877
1.02146
1.01524
1.01026
1.00662
1.00436
1.00348
1.00402
1.00594
1.00922
1.01383
1.01976
1.02698
1.03552
1.04544
1.05686
1.06976
1.08354
1.09691
1.10793
1.11572
1.12074
1.123
1.08301
1.09545
1.10168
1.10269
1.09972
1.09378
1.08569
1.07627
1.06621
1.05611
1.04644
1.03757
1.02972
1.02307
1.01777
1.01394
1.01158
1.0107
1.01129
1.01331
1.01672
1.02148
1.02757
1.03494
1.04363
1.0537
1.06515
1.07765
1.09012
1.10098
1.10895
1.11416
1.11764
1.11966
1.09252
1.10898
1.11747
1.1192
1.1159
1.10904
1.0998
1.08917
1.07795
1.06681
1.05626
1.04667
1.03825
1.03116
1.02559
1.0216
1.01918
1.01835
1.01904
1.02121
1.02479
1.02975
1.03603
1.04362
1.05253
1.06275
1.07406
1.08563
1.09602
1.10379
1.1086
1.11151
1.1138
1.11572
1.10302
1.12453
1.13558
1.1379
1.13395
1.12579
1.11501
1.10286
1.09025
1.0779
1.06635
1.05596
1.04693
1.03943
1.03361
1.02953
1.02713
1.0264
1.02725
1.02961
1.03343
1.03864
1.04519
1.0531
1.06231
1.0726
1.08334
1.09327
1.10088
1.10543
1.1076
1.10885
1.11044
1.11234
1.11435
1.14235
1.15632
1.15902
1.15395
1.14396
1.13121
1.11719
1.10293
1.0892
1.07656
1.06531
1.05567
1.04778
1.04179
1.03768
1.03538
1.03482
1.03589
1.03851
1.04263
1.0482
1.05518
1.06346
1.07287
1.0829
1.09236
1.09982
1.10436
1.10625
1.10669
1.10711
1.10824
1.10999
1.12627
1.16267
1.17999
1.18269
1.17584
1.16338
1.14816
1.13193
1.11579
1.10054
1.0867
1.07458
1.06433
1.05612
1.05004
1.04598
1.04386
1.04355
1.04491
1.04788
1.05243
1.0585
1.06607
1.07461
1.08377
1.09276
1.09997
1.10448
1.1064
1.10663
1.10633
1.1065
1.10741
1.10866
1.13796
1.18563
1.20675
1.20886
1.19932
1.18363
1.16546
1.14672
1.12848
1.11159
1.09655
1.08357
1.07277
1.06433
1.05825
1.05435
1.05251
1.05256
1.05433
1.05778
1.06288
1.06949
1.07741
1.08595
1.09405
1.10067
1.10492
1.10685
1.10723
1.10688
1.10651
1.10669
1.10754
1.10826
1.14904
1.21117
1.23651
1.23704
1.22365
1.2039
1.1824
1.16101
1.14069
1.12215
1.10588
1.09205
1.08079
1.07221
1.06623
1.06262
1.06123
1.06181
1.06415
1.06812
1.07374
1.08087
1.08875
1.09604
1.10155
1.10511
1.10685
1.10741
1.10736
1.10707
1.10694
1.10728
1.10794
1.10829
1.15384
1.23721
1.26794
1.26587
1.24767
1.22362
1.19896
1.17497
1.15244
1.1322
1.11467
1.10002
1.08826
1.07961
1.07389
1.07073
1.07012
1.07144
1.07419
1.07844
1.08439
1.09145
1.0979
1.10231
1.10476
1.10611
1.10681
1.10713
1.10724
1.10723
1.10738
1.10781
1.10824
1.10834
1.16028
1.26346
1.30026
1.29447
1.2706
1.24205
1.21429
1.18734
1.16233
1.14039
1.12174
1.10647
1.09452
1.08642
1.0815
1.07895
1.07911
1.08128
1.08425
1.08786
1.09235
1.09691
1.10052
1.10295
1.10441
1.10546
1.10628
1.1068
1.10709
1.10733
1.10767
1.10809
1.10838
1.10837
1.0855
1.27592
1.32342
1.31391
1.28697
1.25628
1.22725
1.19765
1.16997
1.14609
1.12629
1.11037
1.09834
1.09016
1.08554
1.08403
1.08508
1.0871
1.08871
1.09007
1.09231
1.09559
1.09887
1.10152
1.10353
1.10501
1.10603
1.10666
1.10704
1.10739
1.1078
1.10821
1.10843
1.10841
1.31035
1.30586
1.2985
1.29242
1.28816
1.2854
1.30866
1.30425
1.29759
1.29239
1.28851
1.28592
1.30897
1.30508
1.29904
1.29428
1.29049
1.28786
1.31183
1.30818
1.30271
1.29794
1.29406
1.29128
1.31716
1.31323
1.30833
1.30338
1.29929
1.2962
1.3249
1.32058
1.31576
1.3106
1.30621
1.30261
1.33471
1.3302
1.32493
1.31946
1.31457
1.31019
1.3462
1.34132
1.33552
1.32957
1.32396
1.31859
1.35889
1.3535
1.3471
1.34054
1.33407
1.32763
1.37217
1.36629
1.35924
1.35203
1.3447
1.33703
1.38529
1.37924
1.37154
1.36366
1.35544
1.34628
1.39786
1.3919
1.38357
1.37493
1.36567
1.3547
1.40971
1.40365
1.39472
1.38523
1.37467
1.36157
1.4199
1.41378
1.40421
1.39385
1.38172
1.36613
1.4275
1.42157
1.41126
1.39999
1.38607
1.36775
1.43247
1.42622
1.41525
1.40299
1.38712
1.36599
1.43432
1.4273
1.41574
1.40239
1.38447
1.36059
1.43224
1.42463
1.41248
1.39795
1.37799
1.35161
1.4261
1.41801
1.40533
1.38964
1.36785
1.33941
1.41638
1.40769
1.39447
1.37769
1.35436
1.32448
1.40351
1.39412
1.38033
1.36258
1.33805
1.30721
1.3873
1.37754
1.36331
1.34483
1.31963
1.28813
1.36815
1.35836
1.34392
1.32501
1.29969
1.26808
1.34688
1.33727
1.3228
1.30381
1.27873
1.24777
1.32426
1.315
1.30066
1.28192
1.25725
1.22749
1.30095
1.29218
1.2781
1.25977
1.2358
1.20746
1.27752
1.26935
1.25566
1.23779
1.21492
1.1882
1.2544
1.24689
1.23371
1.2165
1.19503
1.16995
1.232
1.22516
1.21263
1.19635
1.17654
1.1536
1.21065
1.20447
1.19273
1.17754
1.15942
1.13894
1.1906
1.18508
1.17418
1.1601
1.1434
1.12475
1.17201
1.16712
1.15705
1.14402
1.12865
1.11151
1.15498
1.15063
1.14145
1.12948
1.11546
1.09987
1.13954
1.13565
1.12739
1.11674
1.1038
1.08983
1.12563
1.12215
1.11472
1.10538
1.09361
1.08111
1.1132
1.11005
1.10333
1.09507
1.0848
1.07349
1.1021
1.09932
1.09325
1.08592
1.07704
1.06685
1.0922
1.08978
1.0844
1.07797
1.07025
1.06116
1.08331
1.08133
1.07662
1.07113
1.06442
1.05648
1.07535
1.07376
1.06975
1.06523
1.05954
1.05283
1.06814
1.06695
1.06368
1.0602
1.05562
1.05017
1.06149
1.06076
1.05833
1.05594
1.05259
1.04845
1.05522
1.055
1.05355
1.05234
1.05035
1.04759
1.04914
1.0495
1.04916
1.04926
1.04878
1.04754
1.04305
1.0441
1.04499
1.04656
1.04781
1.04825
1.03676
1.03859
1.04086
1.0441
1.04733
1.04969
1.03003
1.03277
1.03656
1.04169
1.04718
1.05178
1.02267
1.02629
1.03182
1.03918
1.04719
1.05445
1.01433
1.01875
1.02638
1.03632
1.04721
1.05765
1.00447
1.00977
1.01993
1.0328
1.04708
1.0613
0.992486
0.998815
1.01181
1.028
1.04638
1.06529
0.977718
0.985075
1.00106
1.02096
1.0445
1.0694
0.959274
0.967485
0.985984
1.01043
1.04052
1.07307
0.935974
0.944835
0.965321
0.994938
1.033
1.07528
0.906334
0.915618
0.937671
0.971941
1.01945
1.07452
0.868467
0.877755
0.899945
0.93727
0.994392
1.06704
0.819601
0.827254
0.847878
0.885188
0.94916
1.04757
0.756717
0.759641
0.777219
0.808496
0.862028
0.99009
0.678343
0.672206
0.682596
0.698982
0.712073
0.866074
0.585972
0.566026
0.564151
0.571011
0.469709
0.392525
0.493283
0.462331
0.427931
0.397248
0.119554
-0.593138
0.407918
0.374314
0.308281
0.244226
0.0121978
-0.491939
0.326591
0.293395
0.219452
0.143247
0.0137573
-0.233634
-0.167454
-0.164433
-0.161973
-0.160091
-0.159131
-0.159641
-0.161725
-0.165014
-0.168947
-0.172825
-0.175964
-0.178162
-0.179589
-0.180388
-0.180549
-0.180224
-0.179673
-0.179103
-0.178616
-0.178229
-0.177935
-0.177714
-0.177561
-0.177462
-0.177389
-0.177331
-0.177283
-0.177236
-0.177192
-0.177153
-0.177124
-0.177111
-0.177112
-0.177122
-0.165596
-0.163964
-0.162889
-0.161292
-0.160445
-0.161092
-0.16334
-0.166672
-0.170461
-0.174165
-0.177088
-0.179077
-0.180424
-0.181013
-0.180808
-0.180125
-0.179388
-0.178792
-0.178365
-0.17806
-0.177827
-0.177659
-0.17754
-0.17745
-0.177384
-0.177332
-0.177285
-0.17724
-0.177199
-0.177161
-0.177132
-0.177118
-0.177119
-0.177127
-0.16549
-0.164956
-0.164654
-0.163498
-0.163042
-0.163982
-0.16635
-0.169634
-0.173233
-0.176657
-0.179433
-0.181269
-0.18231
-0.182623
-0.182125
-0.181049
-0.179876
-0.178931
-0.178302
-0.177929
-0.177711
-0.17758
-0.177488
-0.177418
-0.177367
-0.177325
-0.177286
-0.177247
-0.177208
-0.17717
-0.17714
-0.177122
-0.177123
-0.177132
-0.166396
-0.167289
-0.166818
-0.16584
-0.165756
-0.167043
-0.169613
-0.172934
-0.176408
-0.179562
-0.182054
-0.183702
-0.184562
-0.184666
-0.184031
-0.182793
-0.181269
-0.179825
-0.178717
-0.178021
-0.177665
-0.177505
-0.177427
-0.177378
-0.177343
-0.177313
-0.177285
-0.177254
-0.177218
-0.177179
-0.177145
-0.177123
-0.177121
-0.177132
-0.168285
-0.169794
-0.168862
-0.167796
-0.167946
-0.169592
-0.172467
-0.175946
-0.179406
-0.182397
-0.184663
-0.186108
-0.186774
-0.186714
-0.185982
-0.184669
-0.182967
-0.181163
-0.179573
-0.178417
-0.177768
-0.177483
-0.177378
-0.177339
-0.177319
-0.177304
-0.177286
-0.177262
-0.177229
-0.17719
-0.17715
-0.177121
-0.177115
-0.177126
-0.170707
-0.172106
-0.170828
-0.169624
-0.169951
-0.171947
-0.175125
-0.178755
-0.182196
-0.185039
-0.187093
-0.18832
-0.188783
-0.188557
-0.187714
-0.186337
-0.184551
-0.18255
-0.180655
-0.179048
-0.17804
-0.177545
-0.17736
-0.177309
-0.177298
-0.177294
-0.177287
-0.177271
-0.177242
-0.177201
-0.177154
-0.177115
-0.177101
-0.177111
-0.173145
-0.174296
-0.172795
-0.171444
-0.171914
-0.174232
-0.17765
-0.181358
-0.184722
-0.187387
-0.189224
-0.190233
-0.190496
-0.190097
-0.189125
-0.187668
-0.185823
-0.183716
-0.181574
-0.179727
-0.178409
-0.177671
-0.177365
-0.177283
-0.177276
-0.177283
-0.177285
-0.177275
-0.17725
-0.177208
-0.177155
-0.177104
-0.177078
-0.177083
-0.175158
-0.176249
-0.1746
-0.173117
-0.17367
-0.176263
-0.179842
-0.183552
-0.186794
-0.189273
-0.190909
-0.191728
-0.191815
-0.191257
-0.190149
-0.188593
-0.186682
-0.184521
-0.182228
-0.180225
-0.178695
-0.177774
-0.177355
-0.17724
-0.17724
-0.177261
-0.177273
-0.17727
-0.177248
-0.177205
-0.177145
-0.177081
-0.177043
-0.177039
-0.176385
-0.177618
-0.175885
-0.174348
-0.174941
-0.17776
-0.181436
-0.185107
-0.188221
-0.190543
-0.192028
-0.19271
-0.192667
-0.19198
-0.190747
-0.189085
-0.187099
-0.184897
-0.182602
-0.180471
-0.178786
-0.17774
-0.177258
-0.177138
-0.177164
-0.177211
-0.177242
-0.177249
-0.17723
-0.177185
-0.177117
-0.177041
-0.176987
-0.17697
-0.176387
-0.177837
-0.176177
-0.174676
-0.175414
-0.178444
-0.182187
-0.18583
-0.188865
-0.191104
-0.192519
-0.193136
-0.193022
-0.192248
-0.190914
-0.189151
-0.187081
-0.184823
-0.182509
-0.180355
-0.178618
-0.1775
-0.177011
-0.176933
-0.177016
-0.177115
-0.177179
-0.177202
-0.177189
-0.177141
-0.177066
-0.17698
-0.176904
-0.176874
-0.174719
-0.176353
-0.174946
-0.173642
-0.174719
-0.178033
-0.181901
-0.185605
-0.188678
-0.190952
-0.192403
-0.193042
-0.192924
-0.192108
-0.190702
-0.188849
-0.186687
-0.184352
-0.181991
-0.17982
-0.178107
-0.177018
-0.176579
-0.176588
-0.176771
-0.176952
-0.177073
-0.177125
-0.177121
-0.177071
-0.176986
-0.176886
-0.176792
-0.176747
-0.17103
-0.172847
-0.171839
-0.170939
-0.172479
-0.176246
-0.180466
-0.184393
-0.187654
-0.1901
-0.191703
-0.19246
-0.192412
-0.191615
-0.190179
-0.188259
-0.186016
-0.183602
-0.181188
-0.179008
-0.177328
-0.176315
-0.175971
-0.176104
-0.176426
-0.176727
-0.176926
-0.17702
-0.177029
-0.176976
-0.176879
-0.176763
-0.176656
-0.176588
-0.165381
-0.167331
-0.166723
-0.166465
-0.168894
-0.173083
-0.17783
-0.182167
-0.185795
-0.188576
-0.190469
-0.191457
-0.191577
-0.190874
-0.189468
-0.187522
-0.185217
-0.182737
-0.18028
-0.178098
-0.176463
-0.175534
-0.175297
-0.175564
-0.176031
-0.17646
-0.176761
-0.176908
-0.17693
-0.176872
-0.17676
-0.176625
-0.176504
-0.176418
-0.158064
-0.159994
-0.159696
-0.160326
-0.163954
-0.168649
-0.173972
-0.178912
-0.183111
-0.186416
-0.188763
-0.19013
-0.190539
-0.190035
-0.188743
-0.186836
-0.184515
-0.181994
-0.179508
-0.177328
-0.175729
-0.174875
-0.174731
-0.175105
-0.175705
-0.176247
-0.176634
-0.176834
-0.17686
-0.176789
-0.176655
-0.176494
-0.176357
-0.17627
-0.149253
-0.151042
-0.151146
-0.15276
-0.157246
-0.162794
-0.168888
-0.174639
-0.17963
-0.183672
-0.186673
-0.188601
-0.189452
-0.189282
-0.188214
-0.186429
-0.184149
-0.181619
-0.179112
-0.176921
-0.175327
-0.174501
-0.174418
-0.174867
-0.175553