/*--------------------------------*- C++ -*----------------------------------*\
| =========                 |                                                 |
| \\      /  F ield         | OpenFOAM: The Open Source CFD Toolbox           |
|  \\    /   O peration     | Version:  v2012                                 |
|   \\  /    A nd           | Website:  www.openfoam.com                      |
|    \\/     M anipulation  |                                                 |
\*---------------------------------------------------------------------------*/
FoamFile
{
    version     2.0;
    format      ascii;
    class       surfaceScalarField;
    location    "565";
    object      phi;
}
// * * * * * * * * * * * * * * * * * * * * * * * * * * * * * * * * * * * * * //

dimensions      [0 3 -1 0 0 0 0];
oriented        oriented;


internalField   nonuniform List<scalar> 
11779
(
-0.000104515
1.0195e-05
9.43201e-05
-0.000113627
9.11174e-06
-0.000121709
8.08193e-06
-0.000128766
7.05672e-06
-0.000134906
6.14025e-06
-0.000140362
5.45617e-06
-0.000145329
4.96729e-06
-0.00014996
4.63105e-06
-0.00015437
4.41004e-06
-0.000158646
4.27537e-06
-0.000162855
4.20897e-06
-0.000167051
4.19644e-06
-0.000171263
4.21194e-06
-0.000175507
4.24391e-06
-0.000179789
4.28248e-06
-0.000184092
4.30217e-06
-0.000188364
4.27214e-06
-0.000192641
4.27692e-06
-0.000196961
4.32009e-06
3.03924e-06
-0.000193363
1.4643e-05
0.000188915
-0.000196506
1.22543e-05
-0.000198663
1.0239e-05
-0.0002002
8.59412e-06
-0.000201365
7.30479e-06
-0.000202231
6.3226e-06
-0.000202859
5.59508e-06
-0.000203297
5.06895e-06
-0.000203584
4.69692e-06
-0.000203749
4.4406e-06
-0.000203817
4.27664e-06
-0.000203818
4.19793e-06
-0.000203775
4.16896e-06
-0.000203678
4.14641e-06
-0.000203513
4.11817e-06
-0.000203281
4.06996e-06
-0.000202961
3.9523e-06
-0.00020242
3.73532e-06
-0.00020148
3.38063e-06
1.55911e-06
-0.000213726
1.55192e-05
0.00021285
-0.000214188
1.27163e-05
-0.00021433
1.03809e-05
-0.000214231
8.49592e-06
-0.000213943
7.0162e-06
-0.000213501
5.88021e-06
-0.000212932
5.02686e-06
-0.000212262
4.3985e-06
-0.00021151
3.94509e-06
-0.000210693
3.62355e-06
-0.000209809
3.39261e-06
-0.000208829
3.21773e-06
-0.000207779
3.11957e-06
-0.00020671
3.0768e-06
-0.00020561
3.01893e-06
-0.000204462
2.92199e-06
-0.000203273
2.76293e-06
-0.000202067
2.52926e-06
-0.000200756
2.06939e-06
8.0329e-07
-0.00021984
1.54895e-05
0.00021987
-0.000219516
1.23924e-05
-0.000218973
9.8375e-06
-0.000218266
7.78908e-06
-0.000217433
6.18344e-06
-0.000216501
4.94752e-06
-0.000215485
4.01176e-06
-0.000214401
3.31401e-06
-0.000213257
2.80104e-06
-0.00021206
2.42623e-06
-0.000210816
2.14857e-06
-0.000209542
1.94396e-06
-0.000208233
1.81106e-06
-0.00020688
1.72371e-06
-0.000205504
1.64304e-06
-0.000204131
1.54853e-06
-0.000202795
1.42726e-06
-0.000201537
1.27067e-06
-0.000200443
9.75529e-07
3.60579e-07
-0.000222769
1.5055e-05
0.000223203
-0.000222037
1.16611e-05
-0.000221106
8.90608e-06
-0.000220045
6.72814e-06
-0.000218898
5.03622e-06
-0.000217689
3.73842e-06
-0.000216431
2.75406e-06
-0.000215133
2.01583e-06
-0.000213799
1.46773e-06
-0.000212435
1.06182e-06
-0.000211045
7.58311e-07
-0.000209633
5.32687e-07
-0.000208195
3.72849e-07
-0.000206735
2.63256e-07
-0.000205276
1.84673e-07
-0.000203855
1.27228e-07
-0.000202513
8.5352e-08
-0.000201297
5.40343e-08
-0.000200351
2.98319e-08
9.68341e-09
-0.000224725
1.42957e-05
0.000225485
-0.000223642
1.0578e-05
-0.00022238
7.64389e-06
-0.000221036
5.38431e-06
-0.000219657
3.65757e-06
-0.000218264
2.34459e-06
-0.000216861
1.35105e-06
-0.00021545
6.0511e-07
-0.000214031
4.90673e-08
-0.000212604
-3.65058e-07
-0.000211168
-6.77697e-07
-0.00020972
-9.15239e-07
-0.000208253
-1.09496e-06
-0.000206772
-1.21714e-06
-0.000205301
-1.28677e-06
-0.00020387
-1.30352e-06
-0.000202522
-1.26316e-06
-0.0002013
-1.16711e-06
-0.000200352
-9.18594e-07
-3.42272e-07
-0.000225894
1.3097e-05
0.000227092
-0.00022443
9.11381e-06
-0.000222845
6.05937e-06
-0.000221263
3.80224e-06
-0.000219722
2.11667e-06
-0.000218229
8.51856e-07
-0.000216776
-1.0241e-07
-0.000215352
-8.18976e-07
-0.000213947
-1.35526e-06
-0.000212558
-1.75449e-06
-0.000211176
-2.05977e-06
-0.000209796
-2.29553e-06
-0.0002084
-2.49032e-06
-0.000206988
-2.62961e-06
-0.000205575
-2.70007e-06
-0.000204174
-2.70419e-06
-0.000202819
-2.61786e-06
-0.000201547
-2.43877e-06
-0.000200446
-2.02014e-06
-7.8821e-07
-0.000225051
1.14674e-05
0.00022668
-0.000223157
7.2198e-06
-0.000221293
4.19609e-06
-0.000219557
2.06624e-06
-0.000217967
5.26073e-07
-0.000216516
-5.9925e-07
-0.000215177
-1.44124e-06
-0.000213922
-2.07413e-06
-0.000212721
-2.5556e-06
-0.000211543
-2.93241e-06
-0.000210369
-3.23409e-06
-0.000209193
-3.47206e-06
-0.000208032
-3.65052e-06
-0.000206885
-3.77693e-06
-0.000205722
-3.86356e-06
-0.00020453
-3.896e-06
-0.00020331
-3.83779e-06
-0.000202083
-3.66561e-06
-0.000200761
-3.34245e-06
-1.5489e-06
-0.000215755
8.69142e-06
0.000218531
-0.000213026
4.49062e-06
-0.000210816
1.98617e-06
-0.000209162
4.12823e-07
-0.000207937
-6.9939e-07
-0.000207026
-1.51019e-06
-0.000206325
-2.14238e-06
-0.000205774
-2.62477e-06
-0.000205332
-2.99783e-06
-0.000204971
-3.29337e-06
-0.000204672
-3.53244e-06
-0.00020442
-3.72481e-06
-0.000204187
-3.88367e-06
-0.000203945
-4.01821e-06
-0.000203681
-4.1281e-06
-0.00020338
-4.19676e-06
-0.000203013
-4.20479e-06
-0.000202439
-4.23953e-06
-0.000201483
-4.29875e-06
-3.03169e-06
-0.000154363
0.000163054
-0.000149872
-0.000147886
-0.000147473
-0.000148173
-0.000149683
-0.000151825
-0.00015445
-0.000157448
-0.000160741
-0.000164274
-0.000167999
-0.000171882
-0.0001759
-0.000180028
-0.000184225
-0.00018843
-0.00019267
-0.000196968
1.08264e-05
-3.10522e-06
-7.72116e-06
1.20915e-05
-1.26512e-06
1.14039e-05
6.87598e-07
9.28724e-06
2.11667e-06
6.64079e-06
2.64645e-06
4.29291e-06
2.34789e-06
2.65546e-06
1.63745e-06
1.84712e-06
8.08339e-07
1.89965e-06
-5.25245e-08
2.84362e-06
-9.43974e-07
4.82766e-06
-1.98404e-06
7.17859e-06
-2.35094e-06
9.20442e-06
-2.02582e-06
1.04248e-05
-1.22035e-06
1.06765e-05
-2.51735e-07
1.03372e-05
3.39289e-07
9.99495e-06
3.42252e-07
9.93455e-06
6.04022e-08
1.00894e-05
-1.54825e-07
1.01198e-05
-3.04153e-08
9.72323e-06
3.96547e-07
8.77599e-06
9.47241e-07
7.22686e-06
1.54913e-06
4.66423e-06
2.56263e-06
5.67587e-07
4.09664e-06
-5.30318e-06
5.87077e-06
-1.28804e-05
7.57719e-06
-2.20944e-05
9.21408e-06
-3.28709e-05
1.07765e-05
-4.48854e-05
1.20145e-05
-5.76869e-05
1.28015e-05
-7.05902e-05
1.29032e-05
-8.29286e-05
1.23385e-05
1.13914e-05
2.28778e-05
-7.90318e-06
-1.80799e-05
2.55085e-05
-3.89577e-06
2.58258e-05
3.70277e-07
2.39128e-05
4.02963e-06
2.03367e-05
6.22252e-06
1.60366e-05
6.64804e-06
1.21348e-05
5.53924e-06
9.53406e-06
3.40907e-06
8.69815e-06
7.83386e-07
9.68556e-06
-1.93139e-06
1.22348e-05
-4.5333e-06
1.49221e-05
-5.03821e-06
1.70377e-05
-4.14144e-06
1.8045e-05
-2.22767e-06
1.79962e-05
-2.02916e-07
1.71865e-05
1.14903e-06
1.57158e-05
1.8129e-06
1.34279e-05
2.34829e-06
1.01668e-05
3.10627e-06
5.72124e-06
4.41516e-06
-6.17728e-07
6.73551e-06
-1.01536e-05
1.04831e-05
-2.36029e-05
1.49985e-05
-4.03806e-05
1.93403e-05
-5.92263e-05
2.29423e-05
-7.90337e-05
2.56782e-05
-9.8916e-05
2.74594e-05
-0.000118036
2.83341e-05
-0.00013562
2.83605e-05
-0.00015111
2.75047e-05
-0.0001641
2.57915e-05
-0.000174576
2.33792e-05
-0.000182753
2.05149e-05
1.7554e-05
3.25258e-05
-1.24743e-05
-2.79546e-05
3.48455e-05
-6.21549e-06
3.49556e-05
2.60168e-07
3.31579e-05
5.8273e-06
2.98653e-05
9.51518e-06
2.56068e-05
1.09065e-05
2.12565e-05
9.8896e-06
1.78257e-05
6.83979e-06
1.60715e-05
2.53761e-06
1.61272e-05
-1.98707e-06
1.72604e-05
-5.66652e-06
1.79757e-05
-5.75352e-06
1.77342e-05
-3.89994e-06
1.63049e-05
-7.98385e-07
1.38601e-05
2.24196e-06
1.03996e-05
4.60949e-06
5.48315e-06
6.72935e-06
-1.70175e-06
9.53319e-06
-1.23206e-05
1.37251e-05
-2.72458e-05
1.93404e-05
-4.63272e-05
2.58169e-05
-6.81692e-05
3.23251e-05
-9.11266e-05
3.79559e-05
-0.000113786
4.19995e-05
-0.000135037
4.4193e-05
-0.000154036
4.46779e-05
-0.000170267
4.36906e-05
-0.000183458
4.15245e-05
-0.000193567
3.84702e-05
-0.000200873
3.48102e-05
-0.000205888
3.08064e-05
-0.00020921
2.67011e-05
-0.000211403
2.27081e-05
1.90005e-05
3.90566e-05
-1.58204e-05
-3.57105e-05
4.01247e-05
-7.28367e-06
3.94141e-05
9.70825e-07
3.74015e-05
7.83993e-06
3.4263e-05
1.26536e-05
3.03578e-05
1.48118e-05
2.62667e-05
1.39806e-05
2.27541e-05
1.03524e-05
2.04517e-05
4.83999e-06
1.9141e-05
-6.76313e-07
1.7512e-05
-4.03754e-06
1.50338e-05
-3.27539e-06
1.13306e-05
-1.96731e-07
6.45162e-06
4.08063e-06
1.56933e-07
8.53664e-06
-8.43146e-06
1.31979e-05
-2.06545e-05
1.89524e-05
-3.73427e-05
2.62213e-05
-5.81943e-05
3.45767e-05
-8.18832e-05
4.30293e-05
-0.000106515
5.04487e-05
-0.000130164
5.59746e-05
-0.000151372
5.91634e-05
-0.000169345
5.99729e-05
-0.000183848
5.8696e-05
-0.000194994
5.5823e-05
-0.000203158
5.18556e-05
-0.000208887
4.72531e-05
-0.000212806
4.23891e-05
-0.000215502
3.75067e-05
-0.000217394
3.26976e-05
-0.000218698
2.80059e-05
-0.00021951
2.35194e-05
1.93607e-05
4.09335e-05
-1.74162e-05
-3.93377e-05
4.06856e-05
-7.03573e-06
3.9246e-05
2.41037e-06
3.68766e-05
1.02094e-05
3.37433e-05
1.57868e-05
3.00981e-05
1.8457e-05
2.63213e-05
1.77574e-05
2.287e-05
1.38038e-05
1.98654e-05
7.84454e-06
1.66097e-05
2.5794e-06
1.20385e-05
5.3368e-07
6.20931e-06
2.55379e-06
-1.27599e-06
7.28857e-06
-1.07884e-05
1.3593e-05
-2.33634e-05
2.11116e-05
-4.00754e-05
2.99098e-05
-6.09671e-05
3.98442e-05
-8.4925e-05
5.01792e-05
-0.000110059
5.97109e-05
-0.000134261
6.72312e-05
-0.000155804
7.19921e-05
-0.000173686
7.38561e-05
-0.000187643
7.31209e-05
-0.000197997
7.03265e-05
-0.000205397
6.60958e-05
-0.000210585
6.1011e-05
-0.000214263
5.55338e-05
-0.00021699
4.998e-05
-0.000219103
4.4502e-05
-0.000220743
3.91464e-05
-0.000221974
3.39293e-05
-0.00022282
2.88512e-05
-0.000223237
2.39368e-05
1.93267e-05
3.78116e-05
-1.69306e-05
-3.82973e-05
3.64726e-05
-5.69668e-06
3.45127e-05
4.37024e-06
3.198e-05
1.27421e-05
2.89408e-05
1.8826e-05
2.55214e-05
2.18764e-05
2.19491e-05
2.13297e-05
1.83499e-05
1.7403e-05
1.42547e-05
1.19397e-05
8.75416e-06
8.07994e-06
1.23157e-06
8.05628e-06
-8.51352e-06
1.22989e-05
-2.10936e-05
1.98686e-05
-3.72349e-05
2.97343e-05
-5.7219e-05
4.10958e-05
-8.04884e-05
5.31793e-05
-0.000105506
6.48613e-05
-0.000130208
7.48812e-05
-0.000152587
8.20899e-05
-0.000171283
8.59274e-05
-0.000185829
8.65383e-05
-0.000196499
8.45261e-05
-0.000204016
8.06383e-05
-0.000209262
7.55721e-05
-0.000213038
6.98722e-05
-0.000215941
6.39141e-05
-0.000218343
5.79353e-05
-0.000220416
5.20534e-05
-0.000222201
4.62863e-05
-0.000223668
4.06137e-05
-0.000224782
3.50427e-05
-0.00022552
2.95892e-05
-0.000225779
2.41962e-05
1.90324e-05
3.11592e-05
-1.5403e-05
-3.26868e-05
2.91579e-05
-3.69544e-06
2.68415e-05
6.68672e-06
2.41847e-05
1.53989e-05
2.11559e-05
2.18548e-05
1.77999e-05
2.52324e-05
1.41899e-05
2.49396e-05
1.00596e-05
2.15334e-05
4.43014e-06
1.75691e-05
-3.71062e-06
1.62207e-05
-1.50422e-05
1.93879e-05
-3.00304e-05
2.72871e-05
-4.87884e-05
3.86267e-05
-7.08962e-05
5.18421e-05
-9.52534e-05
6.54529e-05
-0.000120166
7.80914e-05
-0.000143627
8.83224e-05
-0.000163857
9.5112e-05
-0.000179903
9.81359e-05
-0.000191765
9.77893e-05
-0.00020012
9.48933e-05
-0.000205915
9.03205e-05
-0.000210056
8.47796e-05
-0.000213248
7.87642e-05
-0.000215936
7.25596e-05
-0.00021833
6.63087e-05
-0.000220502
6.01067e-05
-0.000222449
5.40007e-05
-0.000224149
4.7987e-05
-0.000225561
4.20252e-05
-0.00022662
3.61019e-05
-0.000227305
3.02745e-05
-0.000227588
2.44783e-05
1.85373e-05
2.34145e-05
-1.31067e-05
-2.57108e-05
2.08589e-05
-1.13985e-06
1.80806e-05
9.46501e-06
1.50495e-05
1.84299e-05
1.1726e-05
2.51784e-05
8.12004e-06
2.88383e-05
4.10922e-06
2.89504e-05
-1.16e-06
2.68026e-05
-9.1605e-06
2.55696e-05
-2.10472e-05
2.81074e-05
-3.7311e-05
3.56517e-05
-5.75835e-05
4.75595e-05
-8.07946e-05
6.18378e-05
-0.000105469
7.65169e-05
-0.00012982
8.98033e-05
-0.000151873
0.000100145
-0.000170146
0.000106595
-0.00018406
0.000109026
-0.000193973
0.000108049
-0.000200804
0.00010462
-0.000205593
9.96822e-05
-0.000209196
9.39231e-05
-0.000212167
8.77512e-05
-0.000214805
8.14016e-05
-0.000217235
7.49901e-05
-0.000219457
6.85304e-05
-0.000221426
6.20756e-05
-0.000223119
5.56937e-05
-0.000224507
4.93752e-05
-0.000225585
4.31032e-05
-0.000226371
3.68875e-05
-0.000226904
3.08073e-05
-0.000227198
2.47725e-05
1.80197e-05
1.56863e-05
-1.0296e-05
-1.84969e-05
1.25672e-05
1.97916e-06
9.16765e-06
1.28646e-05
5.49053e-06
2.2107e-05
1.58183e-06
2.90871e-05
-2.57548e-06
3.29956e-05
-7.64036e-06
3.40153e-05
-1.51697e-05
3.4332e-05
-2.67259e-05
3.71258e-05
-4.30709e-05
4.44524e-05
-6.37412e-05
5.6322e-05
-8.72619e-05
7.10803e-05
-0.000111836
8.6412e-05
-0.00013547
0.00010015
-0.000156273
0.000110607
-0.000172977
0.000116848
-0.000185303
0.000118921
-0.000193863
0.000117587
-0.000199716
0.000113902
-0.000203904
0.000108808
-0.000207195
0.000102974
-0.000210036
9.67645e-05
-0.000212575
9.02899e-05
-0.000214786
8.36127e-05
-0.000216601
7.68048e-05
-0.000218064
6.99934e-05
-0.00021922
6.32312e-05
-0.00022001
5.64845e-05
-0.000220464
4.98292e-05
-0.000220663
4.33017e-05
-0.00022057
3.67947e-05
-0.000220034
3.02708e-05
-0.000219277
2.40161e-05
1.72733e-05
8.29701e-06
-1.16137e-05
-6.97938e-06
4.53806e-06
5.73811e-06
3.74917e-07
1.70277e-05
-4.0829e-06
2.65649e-05
-8.73781e-06
3.3742e-05
-1.40002e-05
3.8258e-05
-2.11976e-05
4.12127e-05
-3.20649e-05
4.51993e-05
-4.7659e-05
5.27198e-05
-6.7783e-05
6.45765e-05
-9.09977e-05
7.95367e-05
-0.000115173
9.52556e-05
-0.0001381
0.000109339
-0.000157886
0.000119937
-0.000173414
0.000126135
-0.000184613
0.000128047
-0.000192247
0.000126555
-0.00019744
0.00012278
-0.000201218
0.00011768
-0.000204224
0.000111814
-0.000206716
0.000105466
-0.00020871
9.87587e-05
-0.000210204
9.17832e-05
-0.000211087
8.44964e-05
-0.000211162
7.68792e-05
-0.000210232
6.90638e-05
-0.000208055
6.10541e-05
-0.000204469
5.28987e-05
-0.000199375
4.47346e-05
-0.000192811
3.67381e-05
-0.000185153
2.91363e-05
-0.000176658
2.17762e-05
-0.000167283
1.46413e-05
1.30444e-05
-1.00516e-06
1.00516e-06
-2.06089e-06
1.05573e-06
-1.81428e-06
-2.46615e-07
3.20517e-07
-2.13479e-06
3.88753e-06
-3.56702e-06
-3.83363e-06
-1.20262e-06
2.20778e-06
-1.38262e-06
1.23573e-06
1.06181e-06
-2.69104e-06
6.091e-06
-7.16399e-06
1.22456e-05
-9.7216e-06
-9.66789e-06
-5.27269e-07
2.73505e-06
1.38054e-06
-6.72082e-07
6.87028e-06
-8.18078e-06
1.43325e-05
-1.46262e-05
2.18031e-05
-1.71922e-05
-1.58194e-05
5.83485e-07
2.15157e-06
5.32875e-06
-5.41735e-06
1.37132e-05
-1.65652e-05
2.27852e-05
-2.36983e-05
3.03732e-05
-2.47802e-05
-2.11566e-05
2.02328e-06
1.28289e-07
1.0036e-05
-1.34301e-05
2.04788e-05
-2.70079e-05
2.9581e-05
-3.28005e-05
3.57714e-05
-3.09706e-05
-2.47229e-05
4.12389e-06
-3.9956e-06
1.4862e-05
-2.41682e-05
2.55702e-05
-3.77162e-05
3.2943e-05
-4.01733e-05
3.69548e-05
-3.49824e-05
-2.60654e-05
6.67335e-06
-1.0669e-05
1.86269e-05
-3.61217e-05
2.76396e-05
-4.67289e-05
3.21447e-05
-4.46784e-05
3.33038e-05
-3.61415e-05
-2.54484e-05
9.30234e-06
-1.99713e-05
2.03361e-05
-4.71555e-05
2.64044e-05
-5.27971e-05
2.81358e-05
-4.64098e-05
2.74373e-05
-3.5443e-05
-2.37219e-05
1.09746e-05
-3.09459e-05
1.95131e-05
-5.56939e-05
2.26588e-05
-5.59429e-05
2.24717e-05
-4.62227e-05
2.0771e-05
-3.37422e-05
-2.14478e-05
1.08274e-05
-4.17734e-05
1.66115e-05
-6.1478e-05
1.77599e-05
-5.70913e-05
1.64542e-05
-4.49171e-05
1.42589e-05
-3.15469e-05
-1.88025e-05
1.05408e-06
-2.79735e-06
-5.23611e-06
-3.75022e-06
1.05424e-05
-9.04969e-06
2.23272e-05
-1.47026e-05
3.22178e-05
-2.08933e-05
3.99327e-05
-2.86356e-05
4.60004e-05
-3.96231e-05
5.22001e-05
-5.52304e-05
6.08066e-05
-7.55863e-05
7.30757e-05
-9.93611e-05
8.83513e-05
-0.000124246
0.000104422
-0.000147718
0.000118727
-0.000167721
0.000129341
-0.000183174
0.000135391
-0.000194127
0.000137087
-0.00020148
0.0001354
-0.000206431
0.000131507
-0.000209944
0.000126292
-0.000212547
0.000120284
-0.000214434
0.0001137
-0.00021542
0.000106452
-0.000215042
9.83808e-05
-0.000212626
8.93673e-05
-0.000207466
7.93365e-05
-0.000199142
6.85551e-05
-0.000187413
5.73351e-05
-0.000172265
4.59054e-05
-0.000154003
3.46372e-05
-0.00013316
2.38915e-05
-0.000110452
1.403e-05
-8.6879e-05
5.56306e-06
-6.31151e-05
-1.98769e-06
-3.72994e-05
-1.11744e-05
-2.42551e-05
-6.72843e-06
2.1729e-06
1.75818e-06
-1.24174e-05
1.62314e-05
-1.86935e-05
2.86033e-05
-2.56073e-05
3.91316e-05
-3.38028e-05
4.81282e-05
-4.46088e-05
5.68064e-05
-5.93919e-05
6.69833e-05
-7.85907e-05
8.00054e-05
-0.000101202
9.56868e-05
-0.000125033
0.000112182
-0.000147522
0.000126911
-0.00016658
0.000137785
-0.000181144
0.000143906
-0.00019132
0.000145566
-0.000198028
0.000143795
-0.000202374
0.000139746
-0.000205196
0.000134329
-0.000206861
0.000127958
-0.000207106
0.000120529
-0.000205217
0.000111811
-0.000200373
0.000101608
-0.000191836
8.98438e-05
-0.000179173
7.67044e-05
-0.000162532
6.26957e-05
-0.000142437
4.84601e-05
-0.000119737
3.46347e-05
-9.57305e-05
2.1899e-05
-7.19608e-05
1.08675e-05
-5.00675e-05
1.99825e-06
-3.1464e-05
-4.57342e-06
-1.66635e-05
-9.23747e-06
-4.90882e-06
-1.37424e-05
3.0599e-06
-1.91431e-05
-2.11952e-05
-1.44343e-05
8.01626e-06
8.59093e-06
-2.11015e-05
2.28986e-05
-2.85966e-05
3.60984e-05
-3.73012e-05
4.78361e-05
-4.81534e-05
5.89804e-05
-6.23192e-05
7.09723e-05
-8.03964e-05
8.50605e-05
-0.000101742
0.000101351
-0.000124445
0.00011839
-0.000146009
0.000133747
-0.000164306
0.000145207
-0.000178231
0.000151711
-0.000187832
0.000153507
-0.000193954
0.000151688
-0.0001976
0.000147441
-0.000199447
0.000141593
-0.00019944
0.000134321
-0.00019692
0.000125438
-0.000191095
0.000114705
-0.000181245
0.00010196
-0.000166996
8.73593e-05
-0.00014856
7.14081e-05
-0.000126811
5.49554e-05
-0.000103125
3.90097e-05
-7.91546e-05
2.44896e-05
-5.66876e-05
1.21677e-05
-3.73689e-05
2.58029e-06
-2.21672e-05
-4.33421e-06
-1.1058e-05
-9.11093e-06
-3.38243e-06
-1.2249e-05
1.76805e-06
-1.43879e-05
4.49567e-06
-1.647e-05
4.3044e-06
-1.89518e-05
-1.68907e-05
-2.22152e-05
1.48428e-05
1.53886e-05
-3.00574e-05
3.07408e-05
-3.91594e-05
4.52005e-05
-5.01505e-05
5.88272e-05
-6.39081e-05
7.2738e-05
-8.10364e-05
8.81006e-05
-0.00010118
0.000105204
-0.000122779
0.00012295
-0.000143518
0.000139129
-0.00016124
0.000151468
-0.000174737
0.000158704
-0.000183957
0.000160931
-0.000189567
0.000159117
-0.00019241
0.000154531
-0.0001929
0.000147931
-0.000190709
0.000139402
-0.000185135
0.000128747
-0.000175468
0.000115771
-0.000161314
0.000100551
-0.0001429
8.3546e-05
-0.000121142
6.56015e-05
-9.75494e-05
4.78154e-05
-7.39387e-05
3.13447e-05
-5.20711e-05
1.71421e-05
-3.33757e-05
5.79413e-06
-1.86353e-05
-2.57268e-06
-7.73737e-06
-8.31763e-06
-6.45175e-08
-1.20071e-05
4.8781e-06
-1.40535e-05
7.52638e-06
-1.48973e-05
8.28281e-06
-1.51444e-05
7.23907e-06
-1.54263e-05
4.12301e-06
-1.58358e-05
-1.27677e-05
-3.0234e-05
2.28183e-05
2.22585e-05
-3.95276e-05
4.00345e-05
-5.0599e-05
5.62719e-05
-6.40998e-05
7.2328e-05
-8.04796e-05
8.91177e-05
-9.95723e-05
0.000107193
-0.000120159
0.000125791
-0.000140185
0.000142976
-0.000157516
0.00015646
-0.000170777
0.000164729
-0.000179694
0.000167621
-0.000184763
0.000166
-0.000186784
0.000161138
-0.000185893
0.00015364
-0.000181555
0.000143593
-0.000173167
0.000131013
-0.000160261
0.000115841
-0.000142927
9.84371e-05
-0.00012196
7.95839e-05
-9.87958e-05
6.03817e-05
-7.52398e-05
4.20455e-05
-5.30949e-05
2.56705e-05
-3.37843e-05
1.20341e-05
-1.81009e-05
1.45867e-06
-6.09805e-06
-6.20869e-06
2.66282e-06
-1.13336e-05
8.65681e-06
-1.43116e-05
1.22677e-05
-1.56179e-05
1.39102e-05
-1.56961e-05
1.38333e-05
-1.48203e-05
1.22599e-05
-1.35709e-05
9.2762e-06
-1.24426e-05
4.77074e-06
-1.13303e-05
-7.997e-06
-3.86416e-05
3.21693e-05
2.92906e-05
-4.96501e-05
5.1043e-05
-6.28589e-05
6.94807e-05
-7.86759e-05
8.8145e-05
-9.69048e-05
0.000107347
-0.000116609
0.000126898
-0.000136028
0.00014521
-0.000153124
0.000160072
-0.00016638
0.000169715
-0.000175242
0.000173591
-0.000180031
0.00017241
-0.000181312
0.000167282
-0.00017906
0.000158886
-0.000172786
0.000147366
-0.000162069
0.000132876
-0.000146728
0.000115672
-0.000127274
9.63869e-05
-0.000104932
7.60948e-05
-8.14138e-05
5.60656e-05
-5.85499e-05
3.75178e-05
-3.78921e-05
2.13878e-05
-2.04457e-05
8.22411e-06
-6.57114e-06
-1.84051e-06
3.94855e-06
-9.06102e-06
1.15797e-05
-1.38399e-05
1.66245e-05
-1.63783e-05
1.94316e-05
-1.71188e-05
2.03973e-05
-1.65836e-05
1.97903e-05
-1.50892e-05
1.78635e-05
-1.28935e-05
1.47841e-05
-1.04916e-05
1.05654e-05
-8.22392e-06
5.12383e-06
-5.88874e-06
-2.87318e-06
-4.74419e-05
4.31568e-05
3.64544e-05
-6.04074e-05
6.40085e-05
-7.56796e-05
8.47528e-05
-9.3167e-05
0.000105632
-0.000112112
0.000126292
-0.000131034
0.00014582
-0.00014802
0.000162196
-0.000161441
0.000173493
-0.000170547
0.000178821
-0.000175271
0.000178315
-0.000176011
0.000173151
-0.000172709
0.000163979
-0.000164962
0.000151139
-0.000152518
0.000134921
-0.000135525
0.000115883
-0.000114811
9.49592e-05
-9.18629e-05
7.34385e-05
-6.84765e-05
5.27084e-05
-4.63564e-05
3.39455e-05
-2.67744e-05
1.79357e-05
-1.04101e-05
5.02347e-06
2.55676e-06
-4.74274e-06
1.23373e-05
-1.16211e-05
1.92836e-05
-1.60073e-05
2.37318e-05
-1.8288e-05
2.5977e-05
-1.86236e-05
2.636e-05
-1.75018e-05
2.53179e-05
-1.55414e-05
2.30791e-05
-1.28504e-05
1.99014e-05
-9.71575e-06
1.5892e-05
-6.48214e-06
1.10002e-05
-3.33212e-06
5.15195e-06
-4.05382e-08
2.27877e-06
-5.66526e-05
5.59428e-05
4.38666e-05
-7.15256e-05
7.88814e-05
-8.84206e-05
0.000101648
-0.000106688
0.0001239
-0.000125158
0.000144761
-0.000142111
0.000162773
-0.000155832
0.000175916
-0.00016529
0.000182951
-0.00017046
0.000183992
-0.000170937
0.000178792
-0.000166988
0.000169202
-0.000158303
0.000155294
-0.000144786
0.000137623
-0.000126858
0.000116993
-0.000105588
9.46134e-05
-8.25786e-05
7.19496e-05
-5.95974e-05
5.04573e-05
-3.81707e-05
3.12817e-05
-1.93265e-05
1.51013e-05
-3.53289e-06
2.14211e-06
9.08261e-06
-7.59203e-06
1.85616e-05
-1.42217e-05
2.51245e-05
-1.8184e-05
2.90862e-05
-1.9969e-05
3.07556e-05
-1.99574e-05
3.06909e-05
-1.85589e-05
2.93411e-05
-1.6152e-05
2.694e-05
-1.31403e-05
2.37492e-05
-9.65966e-06
1.99422e-05
-5.9087e-06
1.55632e-05
-2.10309e-06
1.05212e-05
1.70981e-06
4.77867e-06
5.70201e-06
7.05745e-06
-6.60841e-05
7.04904e-05
5.15365e-05
-8.25212e-05
9.53184e-05
-0.000100304
0.000119431
-0.000118348
0.000141945
-0.000135284
0.000161696
-0.000149421
0.00017691
-0.000159503
0.000185998
-0.000165267
0.000188716
-0.00016604
0.000184765
-0.000161893
0.000174644
-0.000152812
0.000160122
-0.000138853
0.000141334
-0.000120629
0.000119399
-9.93848e-05
9.57487e-05
-7.67692e-05
7.19978e-05
-5.4463e-05
4.96435e-05
-3.38127e-05
2.9807e-05
-1.56445e-05
1.31135e-05
-2.59117e-07
-2.84026e-07
1.21737e-05
-1.02907e-05
2.15957e-05
-1.7014e-05
2.79629e-05
-2.0589e-05
3.15425e-05
-2.17636e-05
3.29513e-05
-2.13778e-05
3.25643e-05
-1.95704e-05
3.08785e-05
-1.68731e-05
2.83572e-05
-1.36306e-05
2.52892e-05
-1.00723e-05
2.18409e-05
-6.21134e-06
1.80442e-05
-2.11203e-06
1.38532e-05
2.08794e-06
9.17737e-06
6.3856e-06
4.07752e-06
1.08019e-05
1.1135e-05
-7.53276e-05
8.65229e-05
5.92951e-05
-9.27296e-05
0.00011272
-0.000110538
0.000137239
-0.000127443
0.00015885
-0.000142073
0.000176326
-0.000153007
0.000187844
-0.000159626
0.000192617
-0.000161156
0.000190246
-0.0001572
0.000180809
-0.000148303
0.000165746
-0.000134476
0.000146295
-0.000116515
0.000123373
-9.57797e-05
9.86642e-05
-7.39492e-05
7.39183e-05
-5.26216e-05
5.06702e-05
-3.2993e-05
3.00149e-05
-1.57295e-05
1.25436e-05
-1.01201e-06
-1.60407e-06
1.10604e-05
-1.23565e-05
2.01888e-05
-1.9419e-05
2.65107e-05
-2.33359e-05
3.03178e-05
-2.43961e-05
3.16928e-05
-2.31386e-05
3.09862e-05
-2.06711e-05
2.90226e-05
-1.76069e-05
2.64271e-05
-1.42776e-05
2.36374e-05
-1.08409e-05
2.07675e-05
-7.20238e-06
1.77762e-05
-3.22002e-06
1.45567e-05
1.10741e-06
1.101e-05
5.63467e-06
7.07047e-06
1.03251e-05
2.93235e-06
1.494e-05
1.40673e-05
-8.38579e-05
0.000103571
6.68094e-05
-0.00010152
0.000130382
-0.000118568
0.000154288
-0.000133678
0.000173959
-0.000145598
0.000188246
-0.000153241
0.000195488
-0.000155895
0.000195271
-0.000152799
0.00018715
-0.000144449
0.000172459
-0.000131282
0.000152579
-0.000114048
0.000129062
-9.42062e-05
0.000103531
-7.34685e-05
7.79266e-05
-5.33946e-05
5.38444e-05
-3.50932e-05
3.23688e-05
-1.91329e-05
1.40546e-05
-5.6316e-06
-9.57785e-07
5.39354e-06
-1.26292e-05
1.38251e-05
-2.0788e-05
1.9762e-05
-2.5356e-05
2.32441e-05
-2.6818e-05
2.4527e-05
-2.5679e-05
2.43161e-05
-2.29277e-05
2.29062e-05
-1.92613e-05
2.08352e-05
-1.55359e-05
1.86267e-05
-1.20691e-05
1.65363e-05
-8.75055e-06
1.45404e-05
-5.20639e-06
1.24625e-05
-1.14219e-06
1.01364e-05
3.4335e-06
7.45121e-06
8.31989e-06
4.38584e-06
1.33905e-05
1.36021e-06
1.79656e-05
1.54275e-05
-9.11931e-05
0.00012108
7.36848e-05
-0.000108437
0.000147626
-0.000124084
0.000169935
-0.0001369
0.000186775
-0.000145631
0.000196977
-0.000149911
0.000199767
-0.000148196
0.000193557
-0.000141007
0.000179961
-0.000128848
0.000160299
-0.00011272
0.000136452
-9.40484e-05
0.00011039
-7.45998e-05
8.40821e-05
-5.59526e-05
5.92793e-05
-3.92072e-05
3.7099e-05
-2.49188e-05
1.80804e-05
-1.3205e-05
2.34083e-06
-4.00183e-06
-1.0161e-05
2.78358e-06
-1.94146e-05
7.4638e-06
-2.54683e-05
1.05516e-05
-2.84437e-05
1.24211e-05
-2.86875e-05
1.32775e-05
-2.65354e-05
1.31801e-05
-2.28303e-05
1.23954e-05
-1.84766e-05
1.12325e-05
-1.4373e-05
1.00499e-05
-1.08865e-05
9.01993e-06
-7.72054e-06
8.04816e-06
-4.23463e-06
6.92285e-06
-1.68803e-08
5.48453e-06
4.87181e-06
3.65343e-06
1.0151e-05
1.498e-06
1.55459e-05
-2.62817e-07
1.97264e-05
1.51647e-05
-9.69383e-05
0.000138475
7.95428e-05
-0.000113146
0.000163834
-0.000126875
0.000183663
-0.000137101
0.000197001
-0.000142848
0.000202724
-0.000143191
0.00020011
-0.000137543
0.000187909
-0.000126803
0.000169221
-0.000112029
0.000145526
-9.47263e-05
0.000119149
-7.66524e-05
9.23159e-05
-5.9464e-05
6.68938e-05
-4.43329e-05
4.41482e-05
-3.18851e-05
2.46512e-05
-2.22962e-05
8.49157e-06
-1.54557e-05
-4.49971e-06
-1.09786e-05
-1.4638e-05
-8.06996e-06
-2.23233e-05
-5.82448e-06
-2.77137e-05
-3.66669e-06
-3.06015e-05
-1.56061e-06
-3.07936e-05
3.16882e-07
-2.84129e-05
1.66379e-06
-2.41772e-05
2.37162e-06
-1.91845e-05
2.54688e-06
-1.45483e-05
2.47395e-06
-1.08136e-05
2.36771e-06
-7.6143e-06
2.19755e-06
-4.06447e-06
1.80045e-06
3.80214e-07
1.06149e-06
5.61077e-06
-4.77003e-08
1.12602e-05
-1.3018e-06
1.68e-05
-1.70777e-06
2.01324e-05
1.34569e-05
-0.000100801
0.000155222
8.40536e-05
-0.000115509
0.000178542
-0.000127027
0.000195181
-0.000134465
0.000204438
-0.000137144
0.000205404
-0.00013352
0.000196486
-0.000124672
0.000179061
-0.000111539
0.000156088
-9.57287e-05
0.000129715
-7.90531e-05
0.000102473
-6.3235e-05
7.64977e-05
-4.95857e-05
5.32445e-05
-3.88711e-05
3.34336e-05
-3.13878e-05
1.71679e-05
-2.70113e-05
4.11508e-06
-2.50723e-05
-6.4387e-06
-2.42989e-05
-1.54114e-05
-2.34048e-05
-2.32175e-05
-2.17111e-05
-2.94074e-05
-1.91207e-05
-3.31919e-05
-1.58705e-05
-3.40437e-05
-1.23397e-05
-3.19437e-05
-9.0264e-06
-2.74905e-05
-6.39255e-06
-2.18183e-05
-4.66046e-06
-1.62804e-05
-3.69204e-06
-1.1782e-05
-3.14208e-06
-8.16426e-06
-2.80054e-06
-4.40601e-06
-2.70487e-06
2.84539e-07
-2.93681e-06
5.84271e-06
-3.4444e-06
1.17678e-05
-3.69609e-06
1.70517e-05
-2.59739e-06
1.90337e-05
1.08595e-05
-0.000102641
0.000170865
8.69991e-05
-0.000115514
0.000191415
-0.000124651
0.000204318
-0.000129486
0.000209273
-0.00012865
0.000204569
-0.000121924
0.00018976
-0.000110782
0.000167919
-9.66397e-05
0.000141946
-8.1364e-05
0.00011444
-6.67801e-05
8.78893e-05
-5.43521e-05
6.40697e-05
-4.50346e-05
4.39271e-05
-3.92761e-05
2.76751e-05
-3.69804e-05
1.48721e-05
-3.72874e-05
4.42214e-06
-3.85724e-05
-5.15372e-06
-3.93469e-05
-1.46369e-05
-3.89583e-05
-2.36061e-05
-3.72725e-05
-3.10932e-05
-3.42848e-05
-3.61796e-05
-3.01112e-05
-3.82174e-05
-2.50662e-05
-3.69887e-05
-1.972e-05
-3.28368e-05
-1.48374e-05
-2.67009e-05
-1.11267e-05
-1.9991e-05
-8.84847e-06
-1.40603e-05
-7.65203e-06
-9.3607e-06
-6.9604e-06
-5.09765e-06
-6.51265e-06
-1.63213e-07
-6.30184e-06
5.6319e-06
-6.12473e-06
1.15907e-05
-5.29534e-06
1.62223e-05
-2.91581e-06
1.66542e-05
7.94373e-06
-0.000102489
0.000185048
8.83058e-05
-0.000113344
0.00020227
-0.00012014
0.000211114
-0.000122281
0.000211414
-0.000118308
0.000200596
-0.000109372
0.000180824
-9.71034e-05
0.00015565
-8.32817e-05
0.000128124
-6.98064e-05
0.000100964
-5.83073e-05
7.63902e-05
-4.99333e-05
5.56956e-05
-4.53053e-05
3.92991e-05
-4.44005e-05
2.67703e-05
-4.62678e-05
1.67394e-05
-4.91295e-05
7.28385e-06
-5.14341e-05
-2.84908e-06
-5.26522e-05
-1.34189e-05
-5.27085e-05
-2.35498e-05
-5.14422e-05
-3.23596e-05
-4.86366e-05
-3.89852e-05
-4.41841e-05
-4.26698e-05
-3.82194e-05
-4.29534e-05
-3.1214e-05
-3.98422e-05
-2.4038e-05
-3.38768e-05
-1.7832e-05
-2.61971e-05
-1.35151e-05
-1.83772e-05
-1.1178e-05
-1.16977e-05
-1.00447e-05
-6.231e-06
-9.2952e-06
-9.12675e-07
-8.60962e-06
4.94632e-06
-7.65959e-06
1.06406e-05
-5.82728e-06
1.439e-05
-2.62044e-06
1.34473e-05
5.32329e-06
-0.000100538
0.000197594
8.79927e-05
-0.000109394
0.000211126
-0.000113992
0.000215712
-0.000113175
0.000210596
-0.000106941
0.000194363
-9.68028e-05
0.000170686
-8.4579e-05
0.000143426
-7.21768e-05
0.000115722
-6.13652e-05
9.01528e-05
-5.34934e-05
6.85183e-05
-4.9354e-05
5.15562e-05
-4.90521e-05
3.89972e-05
-5.16954e-05
2.94136e-05
-5.5485e-05
2.0529e-05
-5.88175e-05
1.06163e-05
-6.12314e-05
-4.35185e-07
-6.2827e-05
-1.18233e-05
-6.35514e-05
-2.28254e-05
-6.31204e-05
-3.27906e-05
-6.11262e-05
-4.09794e-05
-5.72169e-05
-4.65792e-05
-5.12783e-05
-4.8892e-05
-4.3525e-05
-4.75954e-05
-3.46271e-05
-4.27747e-05
-2.58126e-05
-3.50116e-05
-1.8589e-05
-2.56008e-05
-1.39725e-05
-1.63143e-05
-1.17075e-05
-8.496e-06
-1.05228e-05
-2.09737e-06
-9.38343e-06
3.80695e-06
-7.78951e-06
9.04672e-06
-5.28611e-06
1.18866e-05
-1.97254e-06
1.01338e-05
3.35075e-06
-9.69442e-05
0.000208374
8.61634e-05
-0.000103755
0.000217937
-0.000106324
0.000218282
-0.000103142
0.000207413
-9.545e-05
0.000186671
-8.50382e-05
0.000160274
-7.38027e-05
0.000132191
-6.3581e-05
0.0001055
-5.58971e-05
8.24689e-05
-5.1759e-05
6.43802e-05
-5.14099e-05
5.12071e-05
-5.41153e-05
4.17026e-05