/*--------------------------------*- C++ -*----------------------------------*\
| =========                 |                                                 |
| \\      /  F ield         | OpenFOAM: The Open Source CFD Toolbox           |
|  \\    /   O peration     | Version:  v2012                                 |
|   \\  /    A nd           | Website:  www.openfoam.com                      |
|    \\/     M anipulation  |                                                 |
\*---------------------------------------------------------------------------*/
FoamFile
{
    version     2.0;
    format      ascii;
    class       volVectorField;
    location    "565";
    object      U;
}
// * * * * * * * * * * * * * * * * * * * * * * * * * * * * * * * * * * * * * //

dimensions      [0 1 -1 0 0 0 0];


internalField   nonuniform List<vector> 
6018
(
(0.026666 -0.498398 0)
(0.0256 -0.546489 0)
(0.0243919 -0.589718 0)
(0.0224164 -0.627478 0)
(0.0200682 -0.660158 0)
(0.0183878 -0.688842 0)
(0.0172343 -0.714683 0)
(0.0164869 -0.738518 0)
(0.016042 -0.760999 0)
(0.015826 -0.78262 0)
(0.0157983 -0.803771 0)
(0.0159239 -0.824756 0)
(0.016122 -0.845768 0)
(0.0163065 -0.86687 0)
(0.016428 -0.888108 0)
(0.0163947 -0.909666 0)
(0.0160648 -0.93186 0)
(0.0150828 -0.954119 0)
(0.0112309 -0.972981 0)
(0.00414527 -0.985414 0)
(0.0533568 -0.957514 0)
(0.0454038 -0.976048 0)
(0.0384976 -0.988947 0)
(0.0327213 -0.997653 0)
(0.0282 -1.00431 0)
(0.0247887 -1.0093 0)
(0.0223047 -1.01297 0)
(0.020551 -1.01558 0)
(0.0193624 -1.01735 0)
(0.0186187 -1.01844 0)
(0.0182402 -1.01899 0)
(0.0181283 -1.01916 0)
(0.0180601 -1.01905 0)
(0.0180341 -1.01869 0)
(0.0180973 -1.018 0)
(0.0181363 -1.01704 0)
(0.017977 -1.01597 0)
(0.0179054 -1.0144 0)
(0.0181677 -1.0094 0)
(0.00899431 -1.00184 0)
(0.0616914 -1.06701 0)
(0.0511266 -1.07021 0)
(0.0422756 -1.07161 0)
(0.035101 -1.07164 0)
(0.0294603 -1.07063 0)
(0.0251359 -1.06876 0)
(0.0218998 -1.06621 0)
(0.0195252 -1.06309 0)
(0.0178092 -1.05951 0)
(0.0165767 -1.05554 0)
(0.015684 -1.0513 0)
(0.0150669 -1.04682 0)
(0.0148249 -1.04154 0)
(0.0147644 -1.03619 0)
(0.0145659 -1.03083 0)
(0.0141771 -1.02527 0)
(0.0135013 -1.01954 0)
(0.0124422 -1.01323 0)
(0.0104259 -1.00631 0)
(0.00504674 -1.00114 0)
(0.0624507 -1.09964 0)
(0.0506036 -1.09866 0)
(0.0407834 -1.09642 0)
(0.0328798 -1.09325 0)
(0.0266751 -1.08937 0)
(0.0219034 -1.08493 0)
(0.018305 -1.08005 0)
(0.0156418 -1.07479 0)
(0.0137061 -1.0692 0)
(0.0123123 -1.06333 0)
(0.0112956 -1.05723 0)
(0.0105578 -1.05096 0)
(0.0101021 -1.04448 0)
(0.00980368 -1.03779 0)
(0.00948863 -1.03095 0)
(0.00906255 -1.02412 0)
(0.00843329 -1.0173 0)
(0.0075008 -1.01041 0)
(0.00578495 -1.00414 0)
(0.00233361 -1.00066 0)
(0.061431 -1.11529 0)
(0.0484504 -1.11225 0)
(0.0378041 -1.10801 0)
(0.0293141 -1.10298 0)
(0.0226806 -1.09743 0)
(0.0175781 -1.09152 0)
(0.0137073 -1.08535 0)
(0.0108096 -1.07895 0)
(0.00866618 -1.07236 0)
(0.00708791 -1.06561 0)
(0.00591459 -1.05873 0)
(0.00504575 -1.05174 0)
(0.00444264 -1.0446 0)
(0.00402974 -1.03731 0)
(0.00369596 -1.02999 0)
(0.00337721 -1.02281 0)
(0.00303486 -1.01579 0)
(0.00261864 -1.00902 0)
(0.00193349 -1.00337 0)
(0.000722788 -1.00053 0)
(0.0590398 -1.12588 0)
(0.0447703 -1.12112 0)
(0.0333445 -1.11514 0)
(0.0244072 -1.10858 0)
(0.0175156 -1.10175 0)
(0.012251 -1.09481 0)
(0.00826191 -1.08782 0)
(0.00526667 -1.08079 0)
(0.0030354 -1.07371 0)
(0.00137804 -1.0666 0)
(0.000137728 -1.05945 0)
(-0.000790591 -1.05225 0)
(-0.00146933 -1.04495 0)
(-0.00193349 -1.03754 0)
(-0.00222336 -1.03014 0)
(-0.00236243 -1.0229 0)
(-0.00235427 -1.01585 0)
(-0.00218833 -1.00905 0)
(-0.00169654 -1.00338 0)
(-0.000647331 -1.00054 0)
(0.055175 -1.1325 0)
(0.0397966 -1.12595 0)
(0.0277121 -1.11816 0)
(0.0185586 -1.11021 0)
(0.0116391 -1.1024 0)
(0.00641798 -1.09483 0)
(0.00247476 -1.08748 0)
(-0.000492721 -1.08029 0)
(-0.00271513 -1.07323 0)
(-0.00437762 -1.06625 0)
(-0.00563953 -1.05934 0)
(-0.00660716 -1.05245 0)
(-0.00735602 -1.0455 0)
(-0.00785742 -1.03846 0)
(-0.00812112 -1.03138 0)
(-0.00812568 -1.02439 0)
(-0.0078081 -1.01746 0)
(-0.00710758 -1.01049 0)
(-0.00557007 -1.00417 0)
(-0.00226664 -1.00067 0)
(0.0503414 -1.1297 0)
(0.033146 -1.12028 0)
(0.0206621 -1.11095 0)
(0.0117616 -1.10194 0)
(0.00523658 -1.09367 0)
(0.000374788 -1.08607 0)
(-0.00328652 -1.07914 0)
(-0.00601401 -1.07266 0)
(-0.00803977 -1.06656 0)
(-0.00956097 -1.06067 0)
(-0.0107728 -1.05479 0)
(-0.0117613 -1.04898 0)
(-0.0125739 -1.04296 0)
(-0.0131305 -1.03731 0)
(-0.0133999 -1.03151 0)
(-0.0133921 -1.0257 0)
(-0.0129823 -1.01979 0)
(-0.012119 -1.01336 0)
(-0.0102531 -1.00635 0)
(-0.00499426 -1.00115 0)
(0.0402543 -1.08529 0)
(0.0229274 -1.07112 0)
(0.0117881 -1.05888 0)
(0.00418416 -1.04939 0)
(-0.00125908 -1.04239 0)
(-0.00527961 -1.03716 0)
(-0.00827431 -1.0332 0)
(-0.0105476 -1.03011 0)
(-0.0123144 -1.02766 0)
(-0.0137155 -1.02568 0)
(-0.0148089 -1.02406 0)
(-0.0156215 -1.02272 0)
(-0.016259 -1.02153 0)
(-0.0168032 -1.02035 0)
(-0.0172527 -1.01905 0)
(-0.0175353 -1.01768 0)
(-0.0175825 -1.01634 0)
(-0.0176836 -1.01458 0)
(-0.0180396 -1.00942 0)
(-0.00896504 -1.00185 0)
(0.0183501 -0.783892 0)
(0.00874969 -0.757856 0)
(0.00172716 -0.742442 0)
(-0.0026333 -0.737159 0)
(-0.00580373 -0.738102 0)
(-0.00788365 -0.743848 0)
(-0.00969031 -0.753161 0)
(-0.0111334 -0.765217 0)
(-0.0122927 -0.779371 0)
(-0.0132505 -0.795172 0)
(-0.0140632 -0.812297 0)
(-0.0147529 -0.830495 0)
(-0.0153072 -0.84956 0)
(-0.0157455 -0.869315 0)
(-0.0160605 -0.889626 0)
(-0.0161627 -0.910552 0)
(-0.0159202 -0.932328 0)
(-0.0149966 -0.954335 0)
(-0.0111919 -0.973059 0)
(-0.00412734 -0.985424 0)
(-0.00165981 0.0472641 0)
(0.00116464 0.0589743 0)
(0.00406308 0.0606503 0)
(0.00494121 0.0530196 0)
(0.00400967 0.040184 0)
(0.00204211 0.026921 0)
(0.000542109 0.0165831 0)
(-0.000345793 0.0103225 0)
(-0.000977316 0.00837988 0)
(-0.00151844 0.0109268 0)
(-0.00264994 0.0186714 0)
(-0.00300133 0.0298964 0)
(-0.00204574 0.0412587 0)
(-0.000499551 0.0499248 0)
(0.000582504 0.0535271 0)
(0.000633027 0.0529679 0)
(-0.000481508 0.0509281 0)
(-0.00263485 0.0498096 0)
(-0.00472738 0.050155 0)
(-0.00444498 0.0508583 0)
(-0.00289341 0.0501028 0)
(-0.00161067 0.0472807 0)
(-0.000871179 0.0417014 0)
(0.00019927 0.0312955 0)
(0.00171727 0.0161903 0)
(0.00326193 -0.0107322 0)
(0.00372418 -0.0451504 0)
(0.00576023 -0.086189 0)
(0.0102044 -0.135852 0)
(0.0157755 -0.192401 0)
(0.0217876 -0.255263 0)
(0.0259192 -0.32112 0)
(0.0274421 -0.384992 0)
(0.0274323 -0.444582 0)
(-0.0213983 0.104021 0)
(-0.00979234 0.123169 0)
(0.00288774 0.131078 0)
(0.0132256 0.127096 0)
(0.0184398 0.11257 0)
(0.0179904 0.0914053 0)
(0.0133864 0.069369 0)
(0.00667936 0.0521205 0)
(-0.000702359 0.0433447 0)
(-0.00778038 0.0437875 0)
(-0.0145788 0.0541167 0)
(-0.0171187 0.0680957 0)
(-0.0152498 0.0805796 0)
(-0.0101691 0.0890123 0)
(-0.00343369 0.0909486 0)
(0.00106459 0.0889933 0)
(0.00212612 0.0833814 0)
(0.00206648 0.0742778 0)
(0.00248276 0.0606161 0)
(0.00294006 0.0418565 0)
(0.00423067 0.0148735 0)
(0.00984433 -0.0222831 0)
(0.0197173 -0.0783114 0)
(0.0326243 -0.157021 0)
(0.0465354 -0.247345 0)
(0.0588553 -0.345311 0)
(0.0690008 -0.445604 0)
(0.0770715 -0.544194 0)
(0.0825352 -0.636561 0)
(0.0846341 -0.719668 0)
(0.0830563 -0.79112 0)
(0.0780619 -0.849773 0)
(0.0704852 -0.896188 0)
(0.0618002 -0.931503 0)
(-0.0412539 0.153294 0)
(-0.0211417 0.170921 0)
(5.63439e-05 0.176879 0)
(0.0186112 0.172742 0)
(0.0308391 0.15964 0)
(0.0348002 0.139741 0)
(0.0305732 0.116757 0)
(0.020071 0.0959266 0)
(0.00610507 0.0824111 0)
(-0.00858241 0.0784503 0)
(-0.0219629 0.0834152 0)
(-0.0235592 0.0888425 0)
(-0.0187031 0.0902282 0)
(-0.00925295 0.0861511 0)
(8.10576e-05 0.0766208 0)
(0.00714738 0.0625512 0)
(0.01186 0.0421357 0)
(0.016238 0.0127946 0)
(0.0233199 -0.0295945 0)
(0.0360926 -0.0930807 0)
(0.0554951 -0.179842 0)
(0.0788292 -0.283819 0)
(0.102178 -0.397662 0)
(0.121932 -0.51336 0)
(0.136012 -0.62453 0)
(0.144469 -0.726076 0)
(0.147374 -0.814649 0)
(0.145259 -0.888343 0)
(0.138876 -0.946537 0)
(0.128877 -0.989334 0)
(0.116199 -1.01933 0)
(0.102096 -1.03954 0)
(0.087697 -1.05264 0)
(0.0739844 -1.06136 0)
(-0.0583314 0.189358 0)
(-0.0290741 0.200538 0)
(0.000688146 0.200124 0)
(0.0261426 0.194213 0)
(0.0434798 0.180881 0)
(0.0509271 0.162587 0)
(0.0476081 0.141616 0)
(0.0345871 0.121456 0)
(0.0151791 0.106373 0)
(-0.00547817 0.0985074 0)
(-0.0217318 0.0923327 0)
(-0.021079 0.0823885 0)
(-0.0119503 0.0668591 0)
(0.0028475 0.0456481 0)
(0.017225 0.0188299 0)
(0.0290892 -0.0165064 0)
(0.042518 -0.0671791 0)
(0.0620544 -0.139235 0)
(0.0885001 -0.234025 0)
(0.119471 -0.347647 0)
(0.150698 -0.471225 0)
(0.177829 -0.594124 0)
(0.197632 -0.707617 0)
(0.208498 -0.806144 0)
(0.210634 -0.887446 0)
(0.205425 -0.951225 0)
(0.194533 -0.998981 0)
(0.179711 -1.03285 0)
(0.162656 -1.05618 0)
(0.144737 -1.07194 0)
(0.126663 -1.08304 0)
(0.108902 -1.09093 0)
(0.0919676 -1.09612 0)
(0.0763268 -1.09894 0)
(-0.0685056 0.203199 0)
(-0.0305809 0.20536 0)
(0.00492784 0.201076 0)
(0.0345872 0.191978 0)
(0.0557352 0.177871 0)
(0.0657905 0.160518 0)
(0.0631725 0.141401 0)
(0.0484768 0.122739 0)
(0.0255558 0.106696 0)
(0.00276039 0.0919833 0)
(-0.00892947 0.0725696 0)
(-0.00464235 0.0469788 0)
(0.0101669 0.0139327 0)
(0.0297081 -0.0270051 0)
(0.0518263 -0.0802698 0)
(0.0777164 -0.152694 0)
(0.109768 -0.247689 0)
(0.147294 -0.361821 0)
(0.1863 -0.487266 0)
(0.221267 -0.613283 0)
(0.247732 -0.72948 0)
(0.263512 -0.828799 0)
(0.268407 -0.908252 0)
(0.263687 -0.968328 0)
(0.251514 -1.01178 0)
(0.234332 -1.04231 0)
(0.214362 -1.06368 0)
(0.193332 -1.07906 0)
(0.172298 -1.09091 0)
(0.15175 -1.10016 0)
(0.131815 -1.10729 0)
(0.112504 -1.11255 0)
(0.0939859 -1.11573 0)
(0.0767401 -1.1166 0)
(-0.0707159 0.190697 0)
(-0.027119 0.186251 0)
(0.012252 0.178415 0)
(0.0447438 0.167424 0)
(0.0681537 0.153446 0)
(0.0797798 0.137132 0)
(0.0776198 0.119476 0)
(0.0620545 0.101555 0)
(0.038339 0.0825315 0)
(0.0188473 0.0590759 0)
(0.0138258 0.0268413 0)
(0.0251657 -0.0155936 0)
(0.0483569 -0.0701117 0)
(0.0793395 -0.140674 0)
(0.116959 -0.231031 0)
(0.16019 -0.340774 0)
(0.20603 -0.463945 0)
(0.249633 -0.591006 0)
(0.285358 -0.711055 0)
(0.309226 -0.814963 0)
(0.319977 -0.898114 0)
(0.318832 -0.960401 0)
(0.308319 -1.00474 0)
(0.291321 -1.03552 0)
(0.27045 -1.05717 0)
(0.24775 -1.07327 0)
(0.224601 -1.08621 0)
(0.201762 -1.09729 0)
(0.179461 -1.10694 0)
(0.15768 -1.11509 0)
(0.1364 -1.12162 0)
(0.115602 -1.1264 0)
(0.0953364 -1.12895 0)
(0.0761851 -1.12877 0)
(-0.0650627 0.159949 0)
(-0.0192597 0.151004 0)
(0.021351 0.140556 0)
(0.0552484 0.128476 0)
(0.0801902 0.114426 0)
(0.093085 0.0985911 0)
(0.0915091 0.0813597 0)
(0.0762837 0.0621956 0)
(0.0560721 0.0381196 0)
(0.0445186 0.00469924 0)
(0.0497991 -0.042991 0)
(0.072946 -0.108038 0)
(0.110287 -0.192314 0)
(0.157119 -0.295384 0)
(0.208655 -0.413299 0)
(0.260515 -0.539008 0)
(0.306663 -0.662587 0)
(0.341798 -0.773733 0)
(0.362622 -0.86501 0)
(0.368935 -0.934237 0)
(0.363112 -0.983629 0)
(0.348585 -1.01773 0)
(0.328635 -1.0415 0)
(0.305818 -1.05911 0)
(0.281805 -1.07342 0)
(0.257511 -1.08597 0)
(0.23343 -1.09736 0)
(0.209789 -1.1077 0)
(0.186552 -1.11687 0)
(0.163554 -1.12466 0)
(0.140761 -1.13095 0)
(0.118292 -1.13559 0)
(0.0960399 -1.13777 0)
(0.0743711 -1.13808 0)
(-0.0568731 0.122865 0)
(-0.0100695 0.110764 0)
(0.0314563 0.0977847 0)
(0.0664073 0.0835626 0)
(0.0925845 0.067999 0)
(0.106617 0.051057 0)
(0.105854 0.0323126 0)
(0.0934022 0.00964214 0)
(0.0817504 -0.02226 0)
(0.0831848 -0.0704068 0)
(0.103904 -0.140471 0)
(0.143701 -0.232835 0)
(0.195813 -0.343073 0)
(0.253224 -0.464747 0)
(0.309051 -0.589845 0)
(0.356773 -0.708299 0)
(0.391088 -0.810544 0)
(0.40934 -0.891098 0)
(0.412392 -0.949704 0)
(0.403487 -0.990193 0)
(0.386636 -1.01798 0)
(0.365245 -1.03805 0)
(0.341591 -1.05394 0)
(0.316994 -1.06774 0)
(0.29205 -1.08038 0)
(0.266898 -1.09203 0)
(0.241842 -1.10252 0)
(0.217109 -1.11172 0)
(0.192633 -1.11958 0)
(0.16833 -1.12564 0)
(0.144269 -1.13015 0)
(0.120685 -1.13374 0)
(0.0973931 -1.13621 0)
(0.0733731 -1.13598 0)
(-0.0466459 0.0855529 0)
(0.00121673 0.0708313 0)
(0.0436049 0.0548388 0)
(0.0795377 0.0373492 0)
(0.106759 0.0187127 0)
(0.121482 -0.00104827 0)
(0.122572 -0.0232337 0)
(0.117612 -0.053177 0)
(0.119916 -0.0991217 0)
(0.139226 -0.168368 0)
(0.178345 -0.262438 0)
(0.23264 -0.375067 0)
(0.293322 -0.497628 0)
(0.3518 -0.620708 0)
(0.400725 -0.734046 0)
(0.434423 -0.828843 0)
(0.450968 -0.901106 0)
(0.451996 -0.952108 0)
(0.441411 -0.98668 0)
(0.423443 -1.01057 0)
(0.401437 -1.02852 0)
(0.377398 -1.04352 0)
(0.352202 -1.05688 0)
(0.326391 -1.06884 0)
(0.300256 -1.0792 0)
(0.274113 -1.0869 0)
(0.248233 -1.0936 0)
(0.222606 -1.09855 0)
(0.197278 -1.10166 0)
(0.172171 -1.10326 0)
(0.147141 -1.10331 0)
(0.122491 -1.1019 0)
(0.098008 -1.09992 0)
(0.0705725 -1.09596 0)
(-0.0346468 0.0500596 0)
(0.0147205 0.0325133 0)
(0.0584775 0.0129645 0)
(0.0956236 -0.00853526 0)
(0.123445 -0.0310825 0)
(0.139253 -0.0549707 0)
(0.145834 -0.0843291 0)
(0.153414 -0.127683 0)
(0.173619 -0.193038 0)
(0.212406 -0.283456 0)
(0.267146 -0.39436 0)
(0.329495 -0.515681 0)
(0.38988 -0.63616 0)
(0.439725 -0.744995 0)
(0.473269 -0.834056 0)
(0.488879 -0.900298 0)
(0.48882 -0.945999 0)
(0.477403 -0.976589 0)
(0.458994 -0.997931 0)
(0.436705 -1.01431 0)
(0.412441 -1.02794 0)
(0.387112 -1.0394 0)
(0.361114 -1.04776 0)
(0.334473 -1.05422 0)
(0.307241 -1.05677 0)
(0.279836 -1.05487 0)
(0.252154 -1.04736 0)
(0.224075 -1.03308 0)
(0.195917 -1.01171 0)
(0.168007 -0.982648 0)
(0.140624 -0.945572 0)
(0.113908 -0.903597 0)
(0.0868911 -0.863357 0)
(0.0558576 -0.827774 0)
(0.00227797 -0.00257464 0)
(0.00265683 -0.00866482 0)
(0.000577393 -0.0114623 0)
(-0.00178829 -0.00478609 0)
(-0.00366094 0.010217 0)
(-0.00376518 0.0291409 0)
(0.00709091 -0.0038305 0)
(0.00625723 -0.00967217 0)
(-0.00364273 -0.00393722 0)
(-0.0172878 0.0167221 0)
(-0.0266281 0.0458846 0)
(-0.0280096 0.0766942 0)
(0.0113016 -0.00281426 0)
(0.00355177 -0.00298311 0)
(-0.0197733 0.0175798 0)
(-0.0437874 0.0525623 0)
(-0.0563674 0.0914839 0)
(-0.0547508 0.126236 0)
(0.011678 -0.000717821 0)
(-0.00918435 0.00876459 0)
(-0.0494724 0.0452306 0)
(-0.0806964 0.0922599 0)
(-0.0905739 0.135425 0)
(-0.0811324 0.16753 0)
(0.0071751 0.000963053 0)
(-0.0364268 0.0247531 0)
(-0.0916623 0.0758203 0)
(-0.122244 0.12801 0)
(-0.12232 0.166797 0)
(-0.101476 0.189943 0)
(-0.00637753 0.00396896 0)
(-0.0782947 0.0446568 0)
(-0.139697 0.103147 0)
(-0.159726 0.150439 0)
(-0.145131 0.177155 0)
(-0.1122 0.191883 0)
(-0.0287308 0.00902993 0)
(-0.129004 0.0641688 0)
(-0.184175 0.119742 0)
(-0.185808 0.153728 0)
(-0.155668 0.16638 0)
(-0.112567 0.166174 0)
(-0.0619032 0.0188065 0)
(-0.180714 0.0778877 0)
(-0.217353 0.121465 0)
(-0.198279 0.139885 0)
(-0.155108 0.140658 0)
(-0.106166 0.133431 0)
(-0.107649 0.0292734 0)
(-0.223786 0.0806867 0)
(-0.236297 0.109438 0)
(-0.200227 0.115375 0)
(-0.14898 0.109079 0)
(-0.0971527 0.098489 0)
(-0.158452 0.0338663 0)
(-0.254683 0.0720915 0)
(-0.243923 0.0892438 0)
(-0.196386 0.0872854 0)
(-0.140306 0.0774202 0)
(-0.0865958 0.0650123 0)
(-0.0199905 0.0153532 0)
(0.0315328 -0.0055501 0)
(0.0771125 -0.0292944 0)
(0.115353 -0.0551268 0)
(0.144101 -0.0823578 0)
(0.163841 -0.113505 0)
(0.180911 -0.15561 0)
(0.205546 -0.217169 0)
(0.245468 -0.302476 0)
(0.300915 -0.408709 0)
(0.364641 -0.526399 0)
(0.426328 -0.64312 0)
(0.476746 -0.747395 0)
(0.510083 -0.831415 0)
(0.524998 -0.892816 0)
(0.524139 -0.934439 0)
(0.512176 -0.961959 0)
(0.493559 -0.980976 0)
(0.471444 -0.995135 0)
(0.447378 -1.00541 0)
(0.421715 -1.01276 0)
(0.394329 -1.01476 0)
(0.364911 -1.00925 0)
(0.332839 -0.9921 0)
(0.298451 -0.960602 0)
(0.262406 -0.913722 0)
(0.224903 -0.850222 0)
(0.186736 -0.771085 0)
(0.149064 -0.678472 0)
(0.113135 -0.575211 0)
(0.0793655 -0.464255 0)
(0.0454846 -0.348654 0)
(0.0103005 -0.237742 0)
(-0.0113632 -0.146779 0)
(-0.00192003 -0.0190739 0)
(0.0522214 -0.0440484 0)
(0.0997941 -0.072313 0)
(0.139634 -0.10306 0)
(0.171714 -0.137394 0)
(0.199894 -0.18029 0)
(0.231918 -0.239222 0)
(0.275359 -0.319487 0)
(0.332344 -0.419938 0)
(0.397482 -0.532368 0)
(0.460605 -0.644437 0)
(0.511868 -0.744226 0)
(0.545287 -0.823867 0)
(0.559816 -0.88129 0)
(0.558428 -0.919588 0)
(0.546009 -0.944316 0)
(0.527231 -0.960498 0)
(0.504847 -0.970766 0)
(0.47966 -0.976195 0)
(0.45138 -0.973208 0)
(0.419023 -0.958337 0)
(0.381634 -0.927683 0)
(0.338892 -0.878133 0)
(0.29137 -0.808352 0)
(0.240624 -0.721377 0)
(0.188427 -0.6193 0)
(0.136693 -0.507638 0)
(0.0876437 -0.393276 0)
(0.0432757 -0.283889 0)
(0.00544226 -0.187121 0)
(-0.0236045 -0.107875 0)
(-0.0486466 -0.0454406 0)
(-0.0768143 0.00299923 0)
(-0.100436 0.00871261 0)
(0.019372 -0.053077 0)
(0.0764409 -0.0824712 0)
(0.1266 -0.115699 0)
(0.169897 -0.153059 0)
(0.208889 -0.197649 0)
(0.249345 -0.255213 0)
(0.297805 -0.330986 0)
(0.35727 -0.425387 0)
(0.424143 -0.53196 0)
(0.489259 -0.639209 0)
(0.542442 -0.735129 0)
(0.577126 -0.811549 0)
(0.592149 -0.866166 0)
(0.590795 -0.901875 0)
(0.578192 -0.923825 0)
(0.558776 -0.935934 0)
(0.534787 -0.941219 0)
(0.506353 -0.936036 0)
(0.472306 -0.917444 0)
(0.431328 -0.881295 0)
(0.382797 -0.824764 0)
(0.32719 -0.747225 0)
(0.2665 -0.651246 0)
(0.203913 -0.542358 0)
(0.142932 -0.428202 0)
(0.0870439 -0.316709 0)
(0.0395949 -0.216548 0)
(0.00274326 -0.13474 0)
(-0.0234544 -0.0737573 0)
(-0.0406069 -0.0303087 0)
(-0.0520134 -0.000995954 0)
(-0.0625445 0.017985 0)
(-0.0776546 0.0251902 0)
(-0.0768288 0.0132105 0)
(0.0442522 -0.0871964 0)
(0.104811 -0.121562 0)
(0.158964 -0.161003 0)
(0.208455 -0.207299 0)
(0.257585 -0.264417 0)
(0.311965 -0.336755 0)
(0.374865 -0.425625 0)
(0.444106 -0.526414 0)
(0.511823 -0.629034 0)
(0.568004 -0.721753 0)
(0.605388 -0.795986 0)
(0.622141 -0.848896 0)
(0.621277 -0.882651 0)
(0.608302 -0.90162 0)
(0.587429 -0.90944 0)
(0.560328 -0.906179 0)
(0.526497 -0.888821 0)
(0.484584 -0.853791 0)
(0.433653 -0.797893 0)
(0.373907 -0.720596 0)
(0.307313 -0.624589 0)
(0.237369 -0.5158 0)
(0.168655 -0.402471 0)
(0.10583 -0.293441 0)
(0.0526376 -0.196499 0)
(0.0114459 -0.117303 0)
(-0.0175627 -0.0578413 0)
(-0.0368736 -0.0148525 0)
(-0.049113 0.0143779 0)
(-0.0559904 0.0317308 0)
(-0.0600163 0.0391626 0)
(-0.0642765 0.0389229 0)
(-0.0693799 0.0302191 0)
(-0.0594119 0.00967155 0)
(0.0734178 -0.121996 0)
(0.138535 -0.162256 0)
(0.198669 -0.209532 0)
(0.256873 -0.26654 0)
(0.317729 -0.336462 0)
(0.384793 -0.420696 0)
(0.457053 -0.516198 0)
(0.528014 -0.614581 0)
(0.588116 -0.704807 0)
(0.629423 -0.777776 0)
(0.649176 -0.829734 0)
(0.649815 -0.861923 0)
(0.636559 -0.877028 0)
(0.613416 -0.880932 0)
(0.581784 -0.868932 0)
(0.54132 -0.839904 0)
(0.490829 -0.790046 0)
(0.430174 -0.718448 0)
(0.360984 -0.626957 0)
(0.286618 -0.521117 0)
(0.211741 -0.40894 0)
(0.141426 -0.299399 0)
(0.0801545 -0.200465 0)
(0.0308169 -0.117486 0)
(-0.00584344 -0.0526834 0)
(-0.0313233 -0.0044102 0)
(-0.0477431 0.0298141 0)
(-0.0571707 0.0517971 0)
(-0.0607085 0.063869 0)
(-0.0603863 0.0672066 0)
(-0.0582568 0.0628224 0)
(-0.0562291 0.0526311 0)
(-0.0543054 0.0362546 0)
(-0.0410696 0.0104908 0)
(0.107427 -0.158052 0)
(0.178345 -0.205386 0)
(0.246551 -0.261748 0)
(0.315261 -0.329757 0)
(0.38712 -0.410421 0)
(0.462908 -0.501368 0)
(0.537594 -0.595966 0)
(0.602387 -0.684288 0)
(0.648843 -0.756997 0)
(0.672845 -0.809047 0)
(0.675919 -0.840552 0)
(0.66274 -0.854 0)
(0.637333 -0.852567 0)
(0.600785 -0.832887 0)
(0.553074 -0.793437 0)
(0.494121 -0.732025 0)
(0.424788 -0.64906 0)
(0.348054 -0.548916 0)
(0.26847 -0.438815 0)
(0.191282 -0.327619 0)
(0.121356 -0.223678 0)
(0.0622873 -0.133215 0)
(0.0157893 -0.0594053 0)
(-0.0185485 -0.00240445 0)
(-0.0425006 0.0399497 0)
(-0.0573087 0.0694825 0)
(-0.0644189 0.0872198 0)
(-0.0653587 0.0957755 0)
(-0.0625479 0.0963565 0)
(-0.0561521 0.0899558 0)
(-0.0485331 0.0778659 0)
(-0.0415 0.0614684 0)
(-0.0342094 0.0401936 0)
(-0.0211073 0.0100891 0)
(0.147207 -0.195224 0)
(0.225454 -0.251063 0)
(0.302979 -0.317408 0)
(0.381822 -0.39478 0)
(0.461771 -0.481793 0)
(0.540506 -0.573186 0)
(0.61049 -0.660024 0)
(0.663183 -0.733167 0)
(0.693043 -0.786565 0)
(0.699537 -0.81868 0)
(0.687236 -0.831084 0)
(0.659685 -0.825645 0)
(0.618555 -0.800052 0)
(0.564115 -0.752636 0)
(0.497284 -0.68287 0)
(0.420351 -0.592687 0)
(0.337425 -0.487885 0)
(0.253949 -0.37671 0)
(0.175342 -0.267866 0)
(0.105969 -0.168658 0)
(0.0484612 -0.0836517 0)
(0.00357864 -0.0146536 0)
(-0.0294231 0.0386289 0)
(-0.0521284 0.0777801 0)
(-0.0660153 0.10404 0)
(-0.0714401 0.119576 0)
(-0.0703429 0.125059 0)
(-0.0652474 0.123185 0)
(-0.0564543 0.115141 0)
(-0.0455589 0.10208 0)
(-0.0341326 0.0849358 0)
(-0.0231648 0.0649466 0)
(-0.0117992 0.0412707 0)
(-0.00121184 0.00940566 0)
(0.194153 -0.234065 0)
(0.280751 -0.298931 0)
(0.367233 -0.374272 0)
(0.453475 -0.457847 0)
(0.536828 -0.546057 0)
(0.612451 -0.6318 0)
(0.67207 -0.70569 0)
(0.70882 -0.761038 0)
(0.720279 -0.795406 0)
(0.710247 -0.808549 0)
(0.681592 -0.800607 0)
(0.636556 -0.771226 0)
(0.576279 -0.718809 0)
(0.502589 -0.643917 0)
(0.419017 -0.550002 0)
(0.330702 -0.443659 0)
(0.243652 -0.333409 0)
(0.163352 -0.227431 0)
(0.0936819 -0.131916 0)
(0.0365917 -0.0502525 0)
(-0.0078019 0.016606 0)
(-0.0400099 0.0686766 0)
(-0.0614587 0.105986 0)
(-0.0736363 0.130651 0)
(-0.0779613 0.14327 0)
(-0.0754425 0.146323 0)
(-0.0678842 0.142699 0)
(-0.0576536 0.133527 0)
(-0.0451378 0.120098 0)
(-0.0312599 0.103401 0)
(-0.0171487 0.0840244 0)
(-0.00326549 0.0628492 0)
(0.0111171 0.0387997 0)
(0.0183082 0.00819956 0)
(0.248418 -0.274296 0)
(0.34319 -0.347509 0)
(0.436664 -0.429271 0)
(0.526306 -0.51475 0)
(0.607875 -0.598986 0)
(0.674759 -0.674158 0)
(0.718991 -0.732215 0)
(0.73694 -0.769797 0)
(0.734606 -0.785422 0)
(0.70329 -0.777538 0)
(0.656052 -0.746436 0)
(0.591192 -0.691901 0)
(0.511841 -0.614989 0)
(0.422559 -0.520274 0)
(0.329362 -0.414935 0)
(0.238638 -0.307338 0)
(0.155859 -0.20499 0)
(0.0846168 -0.1131 0)
(0.0264455 -0.034187 0)
(-0.0187392 0.0313534 0)
(-0.0512921 0.0828328 0)
(-0.0715254 0.12007 0)
(-0.0816398 0.142891 0)
(-0.0837728 0.154197 0)
(-0.0797618 0.155846 0)
(-0.0714045 0.150761 0)
(-0.0598705 0.140171 0)
(-0.0463757 0.126724 0)
(-0.0315004 0.111327 0)
(-0.0157795 0.094217 0)
(0.000142866 0.0754435 0)
(0.0161927 0.0554044 0)
(0.0327188 0.0330053 0)
(0.0358317 0.0075285 0)
(0.309269 -0.314663 0)
(0.410764 -0.394235 0)
(0.507871 -0.478688 0)
(0.59616 -0.561713 0)
(0.670677 -0.63767 0)
(0.723836 -0.699452 0)
(0.750771 -0.741419 0)
(0.755343 -0.76093 0)
(0.726734 -0.755547 0)
(0.677461 -0.724834 0)
(0.609939 -0.670928 0)
(0.526322 -0.594777 0)
(0.432365 -0.501753 0)
(0.334802 -0.399493 0)
(0.240343 -0.296176 0)
(0.154405 -0.19868 0)
(0.0803953 -0.111431 0)
(0.019679 -0.0363401 0)
(-0.0279255 0.0267301 0)
(-0.0618384 0.0767709 0)
(-0.0826624 0.112815 0)
(-0.0913929 0.135774 0)
(-0.0905192 0.149346 0)
(-0.0852492 0.149152 0)
(-0.0750626 0.142371 0)
(-0.0622378 0.13102 0)
(-0.0484335 0.11795 0)
(-0.0338553 0.104566 0)
(-0.0182145 0.0909095 0)
(-0.00152625 0.076399 0)
(0.0157265 0.0605963 0)
(0.0334809 0.0435479 0)
(0.0514288 0.0244507 0)
(0.0512177 0.00572858 0)
(0.375168 -0.35313 0)
(0.480717 -0.436199 0)
(0.577375 -0.519498 0)
(0.659885 -0.596518 0)
(0.723535 -0.661697 0)
(0.761586 -0.709015 0)
(0.772709 -0.733644 0)
(0.749596 -0.73331 0)
(0.702326 -0.70554 0)
(0.632955 -0.654191 0)
(0.546805 -0.581351 0)
(0.449301 -0.492008 0)
(0.348036 -0.394425 0)
(0.250056 -0.29671 0)
(0.160771 -0.205377 0)
(0.0834322 -0.124338 0)
(0.0193266 -0.0551054 0)
(-0.0316827 0.00245756 0)
(-0.0690999 0.048099 0)
(-0.091452 0.0809975 0)
(-0.101616 0.104249 0)
(-0.100968 0.113644 0)
(-0.092638 0.116467 0)
(-0.0791907 0.112306 0)
(-0.0651065 0.10359 0)
(-0.0514427 0.0929848 0)
(-0.0379622 0.0826014 0)
(-0.0237595 0.0730672 0)
(-0.00794291 0.0637586 0)
(0.00961343 0.0535913 0)
(0.0281977 0.0419548 0)
(0.0475082 0.0287519 0)
(0.0659351 0.0138376 0)
(0.0592723 0.00137695 0)
(0.444022 -0.387529 0)
(0.55037 -0.47101 0)
(0.642735 -0.5498 0)
(0.715816 -0.61812 0)
(0.764981 -0.670583 0)
(0.783684 -0.70114 0)
(0.77178 -0.70888 0)
(0.729359 -0.686968 0)
(0.661089 -0.640324 0)
(0.573451 -0.572393 0)
(0.473757 -0.488446 0)
(0.369536 -0.396555 0)
(0.268471 -0.305244 0)
(0.176115 -0.220947 0)
(0.0956499 -0.147486 0)
(0.0282857 -0.0862261 0)
(-0.0260836 -0.0371319 0)
(-0.0671635 -9.78332e-05 0)
(-0.0943477 0.0258287 0)
(-0.108177 0.0431958 0)
(-0.110447 0.0544876 0)
(-0.102906 0.0610293 0)
(-0.0894739 0.063041 0)
(-0.0735284 0.0610708 0)
(-0.0580749 0.0562167 0)
(-0.044374 0.0502345 0)
(-0.0316451 0.0447596 0)
(-0.0179077 0.0401396 0)
(-0.00170658 0.0355432 0)
(0.0169993 0.0297601 0)
(0.0370962 0.0221573 0)
(0.0578225 0.0128349 0)
(0.0754952 0.00294446 0)
(0.0615879 -0.00398191 0)
(0.513556 -0.415917 0)
(0.616996 -0.496808 0)
(0.700927 -0.568327 0)
(0.760871 -0.625985 0)
(0.792357 -0.664934 0)
(0.795636 -0.680076 0)
(0.757591 -0.667605 0)
(0.693333 -0.627454 0)
(0.606413 -0.565986 0)
(0.505523 -0.488431 0)
(0.399265 -0.402962 0)
(0.295589 -0.318206 0)
(0.200625 -0.241082 0)
(0.11768 -0.175688 0)
(0.0479397 -0.123655 0)
(-0.00871413 -0.0850422 0)
(-0.052783 -0.0593373 0)
(-0.0848616 -0.0436337 0)
(-0.106012 -0.0331157 0)
(-0.116492 -0.0234203 0)
(-0.116477 -0.0133099 0)
(-0.107014 -0.00328034 0)
(-0.0910504 0.00518431 0)
(-0.0725937 0.0106338 0)
(-0.0556073 0.0126843 0)
(-0.0417418 0.0123949 0)
(-0.0295138 0.0114771 0)
(-0.0158388 0.010781 0)
(0.00114605 0.00982187 0)
(0.0211856 0.00739752 0)
(0.0428324 0.00300473 0)
(0.0648429 -0.00282552 0)
(0.080717 -0.00719805 0)
(0.0580311 -0.00866098 0)
(0.581465 -0.436729 0)
(0.678478 -0.512379 0)
(0.751354 -0.575021 0)
(0.796964 -0.620883 0)
(0.810166 -0.64585 0)
(0.787201 -0.644324 0)
(0.728296 -0.61343 0)
(0.644807 -0.559949 0)
(0.544315 -0.489815 0)
(0.436716 -0.411072 0)
(0.330913 -0.332706 0)
(0.233659 -0.262124 0)
(0.148857 -0.204177 0)
(0.0778392 -0.161099 0)
(0.0203725 -0.133248 0)
(-0.025085 -0.119607 0)
(-0.0612832 -0.115547 0)
(-0.0907112 -0.113421 0)
(-0.112899 -0.108008 0)
(-0.125484 -0.097883 0)
(-0.126903 -0.0837579 0)
(-0.117456 -0.0670831 0)
(-0.099896 -0.0499921 0)
(-0.0788006 -0.0350505 0)
(-0.0591024 -0.0244079 0)
(-0.0434699 -0.0184961 0)
(-0.0305004 -0.0157036 0)
(-0.0162483 -0.0139155 0)
(0.00177081 -0.0125246 0)
(0.0231115 -0.0126339 0)
(0.0461765 -0.0146005 0)
(0.0681829 -0.0170684 0)
(0.0787041 -0.0156811 0)
(0.0489296 -0.00896249 0)
(0.64587 -0.449018 0)
(0.733255 -0.517335 0)
(0.791789 -0.570132 0)
(0.81887 -0.604217 0)
(0.814026 -0.614715 0)
(0.765927 -0.596244 0)
(0.687556 -0.552017 0)
(0.58943 -0.490544 0)
(0.481434 -0.418946 0)
(0.373723 -0.346608 0)
(0.274217 -0.281598 0)
(0.187688 -0.229613 0)
(0.116023 -0.193819 0)
(0.0588652 -0.175035 0)
(0.0137021 -0.1717 0)
(-0.024452 -0.178174 0)
(-0.0601592 -0.1848 0)
(-0.0930934 -0.186168 0)
(-0.119829 -0.181429 0)
(-0.136885 -0.170467 0)
(-0.141976 -0.153396 0)
(-0.134703 -0.131079 0)
(-0.117063 -0.105558 0)
(-0.0933836 -0.0801836 0)
(-0.0693624 -0.0590357 0)
(-0.0494446 -0.045016 0)
(-0.033775 -0.037804 0)
(-0.0182666 -0.0341738 0)
(0.000806086 -0.031395 0)
(0.0233696 -0.0297136 0)
(0.0472458 -0.0292164 0)
(0.0670967 -0.0275944 0)
(0.0720452 -0.0207214 0)
(0.0372845 -0.00725436 0)
(0.705093 -0.452602 0)
(0.780203 -0.512363 0)
(0.823762 -0.55485 0)
(0.835738 -0.577184 0)
(0.803568 -0.573519 0)
(0.734216 -0.540819 0)
(0.640089 -0.488717 0)
(0.532939 -0.42509 0)
(0.423562 -0.358569 0)
(0.321418 -0.298124 0)
(0.232648 -0.25031 0)
(0.160045 -0.219276 0)
(0.103473 -0.206566 0)
(0.0596276 -0.210333 0)
(0.0218251 -0.224088 0)
(-0.0165346 -0.23797 0)
(-0.0563155 -0.246464 0)
(-0.0941274 -0.249591 0)
(-0.126231 -0.247079 0)
(-0.14908 -0.237799 0)
(-0.159878 -0.220749 0)
(-0.1573 -0.195841 0)
(-0.142095 -0.164391 0)
(-0.117337 -0.129553 0)
(-0.0884047 -0.0964938 0)
(-0.0614678 -0.0709442 0)
(-0.0399036 -0.0558921 0)
(-0.0215294 -0.0491167 0)
(-0.00138327 -0.0453523 0)
(0.0218253 -0.0420235 0)
(0.0451262 -0.0386707 0)
(0.0618822 -0.0326801 0)
(0.0602754 -0.0211064 0)
(0.0258629 -0.00471703 0)
(0.757955 -0.447775 0)
(0.818936 -0.498973 0)
(0.845445 -0.531596 0)
(0.83641 -0.541638 0)
(0.782374 -0.524179 0)
(0.695558 -0.482929 0)
(0.59064 -0.428068 0)
(0.480199 -0.3678 0)
(0.374891 -0.311219 0)
(0.282761 -0.265973 0)
(0.208029 -0.237102 0)
(0.151102 -0.226952 0)
(0.108569 -0.234073 0)
(0.0726962 -0.25168 0)
(0.0349727 -0.270062 0)
(-0.00719103 -0.283644 0)
(-0.0508519 -0.292957 0)
(-0.092821 -0.298656 0)
(-0.13007 -0.299832 0)
(-0.159342 -0.294685 0)
(-0.177444 -0.281118 0)
(-0.182044 -0.257863 0)
(-0.172504 -0.225072 0)
(-0.150063 -0.184686 0)
(-0.118309 -0.141145 0)
(-0.083455 -0.101613 0)
(-0.0521524 -0.0730989 0)
(-0.0271119 -0.0580916 0)
(-0.00487802 -0.051816 0)
(0.0182712 -0.0470712 0)
(0.0398387 -0.0410959 0)
(0.0525391 -0.0317587 0)
(0.0463875 -0.0175861 0)
(0.0165401 -0.00235618 0)
(0.80432 -0.435254 0)
(0.850351 -0.477657 0)
(0.859341 -0.500579 0)
(0.828158 -0.499857 0)
(0.754111 -0.471857 0)
(0.654035 -0.426717 0)
(0.543478 -0.373507 0)
(0.434929 -0.320867 0)
(0.338137 -0.27715 0)
(0.259294 -0.248452 0)
(0.199803 -0.238331 0)
(0.157278 -0.24504 0)
(0.123761 -0.263705 0)
(0.0888343 -0.284118 0)
(0.0476745 -0.30013 0)
(0.00236868 -0.31223 0)
(-0.0437387 -0.322192 0)
(-0.0885503 -0.330075 0)
(-0.129866 -0.335081 0)
(-0.165111 -0.335417 0)
(-0.191128 -0.328199 0)
(-0.204658 -0.310741 0)
(-0.203685 -0.281776 0)
(-0.187793 -0.241939 0)
(-0.158074 -0.193349 0)
(-0.118504 -0.142007 0)
(-0.0763912 -0.0967474 0)
(-0.039505 -0.0656552 0)
(-0.0108681 -0.050544 0)
(0.0128375 -0.0435804 0)
(0.032322 -0.0360197 0)
(0.0416735 -0.0254649 0)
(0.0337644 -0.0119253 0)
(0.0101447 -0.000613837 0)
(0.843091 -0.416474 0)
(0.872837 -0.450475 0)
(0.866768 -0.464445 0)
(0.811753 -0.453832 0)
(0.721827 -0.420043 0)
(0.613241 -0.374939 0)
(0.501781 -0.326899 0)
(0.399299 -0.284412 0)
(0.314069 -0.254405 0)
(0.249894 -0.241955 0)
(0.205146 -0.246441 0)
(0.172339 -0.26414 0)
(0.140921 -0.285115 0)
(0.102884 -0.302157 0)
(0.0585791 -0.314743 0)
(0.011625 -0.325457 0)
(-0.0357152 -0.335328 0)
(-0.0820122 -0.344306 0)
(-0.125745 -0.35173 0)
(-0.165254 -0.356401 0)
(-0.198221 -0.356626 0)