/*--------------------------------*- C++ -*----------------------------------*\
| =========                 |                                                 |
| \\      /  F ield         | OpenFOAM: The Open Source CFD Toolbox           |
|  \\    /   O peration     | Version:  v2012                                 |
|   \\  /    A nd           | Website:  www.openfoam.com                      |
|    \\/     M anipulation  |                                                 |
\*---------------------------------------------------------------------------*/
FoamFile
{
    version     2.0;
    format      ascii;
    class       volScalarField;
    location    "597";
    object      age;
}
// * * * * * * * * * * * * * * * * * * * * * * * * * * * * * * * * * * * * * //

dimensions      [0 0 1 0 0 0 0];


internalField   nonuniform List<scalar> 
6598
(
0.012502
0.0124996
0.0124997
0.0124998
0.0124998
0.0124998
0.0124998
0.0124997
0.0124996
0.012502
0.0375107
0.0374969
0.0374971
0.0374976
0.0374979
0.0374979
0.0374976
0.0374971
0.0374969
0.0375107
0.0625312
0.0624931
0.0624913
0.062492
0.0624925
0.0624925
0.062492
0.0624913
0.0624931
0.0625312
0.0875643
0.0874892
0.0874822
0.0874821
0.0874825
0.0874825
0.087482
0.0874822
0.0874891
0.0875642
0.11261
0.112486
0.11247
0.112468
0.112468
0.112468
0.112468
0.11247
0.112486
0.112609
0.137667
0.137483
0.137455
0.137449
0.137448
0.137448
0.137449
0.137455
0.137483
0.137667
0.162735
0.162481
0.162437
0.162426
0.162423
0.162423
0.162426
0.162437
0.162481
0.162735
0.187814
0.18748
0.187417
0.187399
0.187393
0.187393
0.187398
0.187416
0.187479
0.187813
0.212903
0.212479
0.212394
0.212368
0.212359
0.212359
0.212367
0.212393
0.212478
0.212902
0.238002
0.23748
0.237369
0.237333
0.237321
0.237321
0.237332
0.237368
0.237478
0.238
0.263111
0.262481
0.262342
0.262295
0.262279
0.262279
0.262294
0.26234
0.262478
0.263108
0.288228
0.287483
0.287314
0.287254
0.287233
0.287232
0.287253
0.287311
0.287479
0.288223
0.313354
0.312485
0.312283
0.31221
0.312184
0.312183
0.312207
0.312279
0.312479
0.313347
0.33849
0.337489
0.337251
0.337164
0.337131
0.337129
0.337159
0.337244
0.33748
0.338478
0.363634
0.362494
0.362218
0.362114
0.362074
0.362072
0.362107
0.362207
0.36248
0.363621
0.388788
0.387501
0.387184
0.387063
0.387015
0.387011
0.387052
0.387167
0.387479
0.388748
0.413953
0.41251
0.412149
0.412009
0.411952
0.411947
0.411992
0.412123
0.412477
0.413973
0.439128
0.437522
0.437115
0.436954
0.436887
0.436879
0.436929
0.437075
0.437471
0.438813
0.464316
0.462539
0.462082
0.461899
0.46182
0.461807
0.46186
0.462022
0.462463
0.465312
0.489519
0.487563
0.487052
0.486844
0.486751
0.48673
0.486783
0.486958
0.487441
0.4848
0.514381
0.512238
0.511672
0.511437
0.511327
0.511295
0.511343
0.511525
0.512046
0.533358
0.538903
0.53657
0.535944
0.53568
0.53555
0.535505
0.535546
0.535732
0.536296
0.565893
0.563452
0.56092
0.56023
0.559934
0.559783
0.559722
0.559754
0.559952
0.560547
0.597753
0.588035
0.585295
0.584537
0.584206
0.584031
0.583952
0.583977
0.584198
0.584816
0.628977
0.612658
0.609702
0.608871
0.608503
0.608302
0.608204
0.608225
0.608484
0.609123
0.65958
0.637333
0.634151
0.633241
0.632834
0.632605
0.632489
0.632509
0.632828
0.633483
0.689407
0.662068
0.658651
0.657656
0.657208
0.65695
0.656816
0.656842
0.657245
0.657913
0.718373
0.687321
0.683654
0.682566
0.682074
0.681784
0.681633
0.681673
0.682192
0.682868
0.747341
0.71311
0.709178
0.707987
0.707447
0.707125
0.706958
0.707022
0.707689
0.708367
0.775217
0.739012
0.734803
0.7335
0.732908
0.732552
0.732373
0.732471
0.733321
0.733992
0.801974
0.765048
0.76055
0.759123
0.758477
0.758086
0.757896
0.758039
0.759107
0.759768
0.827686
0.791242
0.786442
0.784879
0.784175
0.783747
0.783547
0.783744
0.785064
0.785719
0.852435
0.817625
0.812509
0.810794
0.810025
0.809558
0.80935
0.809607
0.811207
0.811862
0.876274
0.84423
0.838783
0.836898
0.836058
0.835548
0.835331
0.835649
0.83755
0.838214
0.899282
0.871099
0.865305
0.863228
0.862309
0.861751
0.86152
0.861897
0.864108
0.864787
0.921555
0.898282
0.892123
0.889827
0.888818
0.888206
0.887957
0.888381
0.890897
0.891601
0.943224
0.925837
0.919294
0.916749
0.915636
0.914963
0.914685
0.915139
0.917936
0.918681
0.964504
0.953836
0.946888
0.944059
0.942823
0.942079
0.941762
0.942219
0.945254
0.94607
0.985683
0.982366
0.974989
0.971832
0.970454
0.969628
0.969257
0.969682
0.972888
0.973821
1.0071
1.01153
1.0037
1.00017
0.998616
0.997694
0.997253
0.997606
1.0009
1.00201
1.02913
1.04146
1.03313
1.02917
1.02742
1.02638
1.02585
1.02609
1.02935
1.03071
1.05184
1.0723
1.06345
1.05899
1.05698
1.05582
1.05518
1.05526
1.05837
1.06008
1.07454
1.10425
1.09482
1.08979
1.08748
1.08615
1.0854
1.08528
1.08808
1.09032
1.0975
1.13754
1.12747
1.12177
1.11909
1.11757
1.11667
1.11633
1.11867
1.12165
1.12087
1.17248
1.16167
1.1552
1.15205
1.15028
1.14922
1.14865
1.15036
1.15441
1.1442
1.20944
1.19777
1.1904
1.18665
1.18457
1.1833
1.18252
1.18342
1.18885
1.17138
1.24894
1.23622
1.22776
1.22327
1.22076
1.21924
1.21826
1.21826
1.22435
1.21003
1.29166
1.27761
1.26782
1.26237
1.25929
1.25742
1.25625
1.25541
1.26085
1.2538
1.33859
1.32276
1.31129
1.30458
1.3007
1.29834
1.29692
1.29548
1.29913
1.29847
1.3912
1.37288
1.35914
1.35074
1.34573
1.34263
1.34082
1.33906
1.34054
1.34292
1.45183
1.42976
1.41276
1.40199
1.39536
1.39118
1.3887
1.38672
1.38645
1.38879
1.52477
1.49659
1.47453
1.46018
1.45109
1.44524
1.44163
1.43923
1.43788
1.4388
1.61828
1.57799
1.54723
1.52742
1.51475
1.50649
1.50117
1.49782
1.49573
1.49525
1.75692
1.69091
1.64119
1.60997
1.5904
1.57782
1.56967
1.56455
1.56144
1.55993
1.99524
1.84184
1.75909
1.71068
1.68197
1.66335
1.65082
1.64258
1.6375
1.63476
4.48163
2.54267
2.00718
1.86352
1.801
1.77034
1.7518
1.73912
1.73044
1.72497
13.2543
7.80349
3.82112
2.25356
1.96777
1.89897
1.86996
1.85525
1.84609
1.83994
12.1036
11.9496
8.69824
4.94005
2.98097
2.22259
2.05179
2.00147
1.97775
1.96647
11.6013
11.3879
11.3713
8.76677
6.05539
4.13248
3.10198
2.58562
2.37188
2.28009
11.1392
10.2352
9.8217
9.05925
7.72584
6.534
5.65679
4.98869
4.4966
4.14566
131.594
155.272
155.768
158.435
161.054
164.502
168.384
172.416
176.728
181.117
184.804
187.576
189.489
190.667
191.182
191.325
191.46
191.596
191.734
191.879
192.035
192.214
192.438
192.82
194.975
127.962
149.512
145.937
148.3
152.841
160.14
170.439
183.041
197.134
211.661
225.419
237.407
246.889
253.52
257.263
257.861
255.037
248.865
239.752
228.479
216.409
205.479
197.681
193.986
194.518
121.277
146.946
144.903
144.915
147.25
154.688
168.791
188.98
213.923
241.78
269.92
295.511
316.465
331.625
340.496
342.883
338.924
328.648
312.146
289.901
263.435
236.11
213.077
198.616
194.578
114.266
146.023
144.831
144.681
144.819
149.317
163.643
188.449
222.355
263.185
306.67
347.395
381.629
407.22
422.957
428.177
422.815
407.419
382.909
350.386
311.447
269.554
231.534
205.223
195.133
107.054
145.909
145.199
144.87
144.493
145.77
156.482
181.693
219.938
269.304
324.61
378.156
424.603
460.707
484.173
494.154
488.772
469.104
437.363
396.06
347.557
295.268
246.387
210.828
195.715
98.8353
146.125
146.253
145.816
144.493
144.353
149.775
170.608
207.698
259.065
319.457
380.496
435.169
479.185
509.466
525.806
520.269
499.255
463.672
417.733
364.463
307.319
253.572
213.767
196.081
90.0879
145.48
148.26
148.287
145.515
144.128
145.485
158.563
189.303
236.11
294.745
356.538
413.432
460.289
493.574
510.251
509.918
490.609
456.711
411.919
359.582
303.801
251.942
213.514
196.286
80.9623
143.554
150.621
152.047
148.23
144.455
143.893
149.233
169.521
206.126
256.314
312.472
365.795
410.32
442.759
460.63
461.914
446.465
417.769
378.291
331.919
283.665
240.737
210.977
198.873
71.646
140.221
152.574
156.947
153.261
146.692
143.707
144.378
153.357
176.186
212.532
257.526
302.804
341.376
369.065
384.401
386.764
376.211
354.283
324.036
289.698
256.376
229.085
209.497
189.516
62.4687
135.385
154.056
161.836
159.918
151.861
145.179
143.375
145.034
153.911
173.7
203.174
236.589
267.934
291.659
305.305
308.664
302.52
288.388
268.561
245.707
221.891
197.583
172.134
147.628
53.635
129.087
155.122
166.314
167.807
160.014
150.21
144.435
143.279
144.335
149.451
161.525
178.944
198.67
216.332
228.085
232.209
228.798
219.349
205.142
187.84
169.264
151.751
139.214
133.119
45.3155
120.96
155.12
170.014
176.209
170.87
160.212
150.157
144.532
142.828
142.705
143.828
146.93
151.697
157.189
161.652
163.362
161.727
157.062
150.88
144.615
139.214
136.181
136.026
140.511
37.5827
111.617
153.675
172.765
184.338
183.294
174.515
163.34
153.486
146.874
143.099
141.214
140.471
140.385
140.31
140.233
140.152
140.065
139.976
139.883
139.798
140.015
143.851
152.987
168.497
30.4699
101.333
150.476
174.45
191.5
196.082
191.231
181.909
171.928
163.185
156.276
151.213
147.775
145.704
144.546
144.006
143.947
144.336
145.411
147.824
152.8
161.177
174.143
190.494
210.035
24.0032
90.3413
145.307
174.788
197.212
208.357
208.852
203.053
194.877
186.682
179.432
173.435
168.826
165.635
163.857
163.492
164.565
167.329
172.156
179.518
189.711
202.597
218.333
236.239
256.016
18.1485
78.418
137.89
173.424
200.873
219.323
226.568
225.882
221.515
216.052
210.841
206.421
203.06
200.963
200.299
201.217
203.971
208.771
215.777
225.078
236.619
250.243
265.777
282.974
301.642
13.2608
65.666
127.892
169.84
201.887
227.534
241.919
247.33
247.75
246.106
244.037
242.335
241.369
241.374
242.563
245.18
249.414
255.386
263.156
272.718
284.01
296.949
311.436
327.386
344.7
9.45737
52.5661
115.057
163.304
199.778
231.875
253.696
265.804
271.683
274.336
275.737
276.958
278.531
280.755
283.845
287.991
293.336
299.974
307.954
317.293
327.992
340.047
353.449
368.179
384.194
6.62089
39.7778
99.4082
152.975
194.122
231.19
260.614
279.68
291.475
298.871
304.056
308.329
312.413
316.704
321.461
326.872
333.077
340.177
348.246
357.335
367.492
378.757
391.172
404.761
419.52
4.58831
28.0508
81.396
138.062
184.15
224.961
261.001
287.42
305.521
318.117
327.405
334.922
341.578
347.911
354.256
360.842
367.832
375.355
383.514
392.394
402.072
412.614
424.083
436.537
450.011
3.19952
18.0876
62.2596
118.396
168.842
212.889
253.492
287.204
312.023
330.189
344.056
355.13
364.584
373.105
381.133
388.955
396.779
404.764
413.044
421.735
430.945
440.765
451.276
462.559
474.674
2.30483
10.4685
42.8496
94.4194
147.291
194.471
237.826
276.893
308.775
333.145
351.8
366.914
379.55
390.536
400.449
409.666
418.441
426.969
435.418
443.939
452.675
461.751
471.277
481.349
492.05
1.75836
5.90883
25.9186
68.0994
119.386
168.817
214.141
256.03
293.203
324.018
348.389
367.879
383.978
397.745
409.871
420.728
430.627
439.819
448.515
456.915
465.206
473.559
482.116
490.99
500.276
1.45224
3.48063
13.5389
43.1213
87.2733
135.733
182.192
225.355
265.031
300.303
330.224
354.868
375.104
392
406.476
419.129
430.342
440.395
449.531
457.986
465.99
473.753
481.446
489.203
497.139
1.3026
2.25346
6.20718
22.5687
55.069
97.3724
142.201
185.416
225.713
262.658
295.726
324.501
349.01
369.685
387.155
402.027
414.791
425.851
435.567
444.252
452.187
459.603
466.676
473.549
480.344
1.24348
1.64272
3.12473
9.6446
28.6146
59.4699
97.49
137.641
176.753
213.416
247.071
277.422
304.331
327.846
348.167
365.569
380.37
392.95
403.717
413.047
421.266
428.641
435.384
441.659
447.602
1.23681
1.37567
1.94691
3.68975
11.3222
28.926
55.3861
87.4589
121.685
155.562
187.68
217.367
244.351
268.574
290.067
308.866
325.094
338.997
350.889
361.091
369.9
377.578
384.346
390.391
395.86
1.25482
1.29981
1.46614
1.94733
3.67509
10.2807
24.0727
44.3702
69.1595
96.1595
123.499
149.919
174.7
197.501
218.162
236.579
252.768
266.857
279.039
289.535
298.57
306.358
313.092
318.947
324.063
1.29332
1.30288
1.33168
1.44952
1.58889
2.58613
6.59814
15.3821
28.9983
46.1149
65.2676
85.1825
104.896
123.772
141.399
157.506
171.972
184.792
196.037
205.825
214.292
221.587
227.854
233.232
237.833
1.34061
1.33937
1.34118
1.35965
1.40486
1.53057
1.64338
2.91415
6.58717
13.211
22.9549
34.5506
47.1098
59.9458
72.5236
84.4615
95.5187
105.568
114.567
122.527
129.497
135.549
140.767
145.239
149.039
1.38999
1.3895
1.38573
1.38134
1.38894
1.41819
1.46131
1.55115
1.63941
1.84197
3.32752
6.20548
10.4329
15.826
22.203
28.9236
35.5507
41.8525
47.6993
53.0186
57.7829
61.9953
65.6762
68.8603
71.5801
1.44102
1.44305
1.44317
1.43973
1.43618
1.43691
1.44651
1.47135
1.50613
1.5547
1.61306
1.66393
1.71646
1.76718
2.23788
3.14779
4.40036
5.89298
7.5295
9.22464
10.91
12.5333
14.0559
15.4525
16.709
1.49663
1.4993
1.50237
1.5042
1.50428
1.50196
1.50165
1.5037
1.51579
1.5296
1.55453
1.58317
1.61414
1.64357
1.68758
1.72325
1.75564
1.78775
1.81971
1.85151
1.88311
1.91445
1.94551
1.97625
2.00668
1.56009
1.56189
1.56519
1.56937
1.57367
1.57684
1.5793
1.58125
1.58318
1.58798
1.59596
1.60808
1.6251
1.64159
1.66109
1.68414
1.70827
1.73281
1.75755
1.78239
1.80725
1.83213
1.85698
1.88185
1.90646
1.63389
1.63466
1.63703
1.64094
1.64617
1.6522
1.65852
1.66493
1.67086
1.67702
1.68375
1.69134
1.70025
1.71126
1.72365
1.7376
1.75308
1.76988
1.78761
1.80719
1.82786
1.84791
1.8679
1.88794
1.90852
1.72213
1.72143
1.72252
1.72529
1.72963
1.73545
1.74251
1.75059
1.75939
1.76872
1.77849
1.7887
1.79934
1.81066
1.82275
1.8356
1.84926
1.86372
1.87896
1.89484
1.91136
1.92853
1.94629
1.96456
1.98325
1.83606
1.83413
1.8339
1.83528
1.83821
1.84263
1.84846
1.85562
1.86399
1.87345
1.88385
1.89509
1.90705
1.91967
1.93292
1.94675
1.96115
1.97609
1.99154
2.00748
2.02387
2.04067
2.05788
2.07545
2.09336
1.9622
1.96168
1.96333
1.96648
1.97086
1.97632
1.98283
1.99033
1.99881
2.00824
2.01858
2.02977
2.04176
2.05448
2.06788
2.0819
2.09648
2.11159
2.12717
2.14318
2.15958
2.17635
2.19343
2.21081
2.22845
2.23471
2.20966
2.19534
2.18775
2.18469
2.18489
2.18757
2.19222
2.1985
2.20618
2.21508
2.22507
2.23602
2.24785
2.26047
2.2738
2.28778
2.30235
2.31744
2.333
2.34899
2.36535
2.38207
2.39907
2.41642
3.91049
3.75327
3.6428
3.56175
3.50044
3.45333
3.417
3.38915
3.36812
3.3527
3.34195
3.33515
3.33173
3.3312
3.33315
3.33727
3.34327
3.35093
3.36006
3.37046
3.382
3.39452
3.40793
3.4221
3.43704
197.292
164.854
127.542
156.603
135.467
127.751
132.458
129.374
134.109
133.1
140.351
154.715
151.255
168.516
187.797
187.051
207.192
228.51
230.47
250.897
272.33
275.941
295.609
316.151
320.366
338.878
358.222
362.123
379.412
397.551
400.354
416.446
433.393
434.427
449.301
465.004
463.604
477.175
491.52
486.855
499.008
511.856
502.739
513.373
524.602
509.457
518.519
528.026
504.824
512.302
520.084
486.73
492.782
498.959
452.98
457.9
462.775
400.599
404.749
408.702
328.331
331.914
335.183
241.575
244.613
247.283
152.092
154.528
156.62
73.7699
75.5123
76.9989
17.7499
18.6135
19.3699
2.0331
2.05918
2.08502
1.93033
1.953
1.97525
1.92842
1.94733
1.96642
2.00111
2.01806
2.03523
2.11043
2.1266
2.14296
2.24522
2.26106
2.27704
2.43247
2.44795
2.46355
3.4506
3.46447
3.47859
166.188
132.07
126.157
125.481
125.118
124.892
124.747
124.62
124.503
124.396
124.296
124.201
124.112
124.026
123.944
123.864
123.787
123.712
123.638
123.566
123.496
123.426
123.358
123.29
123.223
123.157
123.091
123.025
122.96
122.895
122.831
122.766
122.702
122.637
122.573
122.508
122.443
122.378
122.312
122.246
122.179
122.112
122.043
121.973
121.902
121.829
121.754
121.677
121.597
121.513
121.422
121.32
121.21
121.13
121.08
121.018
120.971
120.946
120.955
120.976
121.074
121.243
121.44
121.58
121.836
122.164
122.61
123.109
123.566
123.93
124.181
124.31
124.415
124.519
124.625
124.738
124.864
125.011
125.317
126.707
138.86
127.897
125.865
125.505
125.367
125.371
125.476
125.652
125.89
126.174
126.488
126.821
127.161
127.5
127.832
128.152
128.457
128.744
129.013
129.263
129.493
129.703
129.893
130.062
130.211
130.339
130.447
130.534
130.6
130.644
130.667
130.666
130.641
130.592
130.516
130.398
130.235
130.026
129.769
129.459
129.094
128.677
128.208
127.686
127.113
126.493
125.829
125.128
124.402
123.663
122.932
122.232
121.587
121.036
120.646
120.478
120.334
120.149
119.978
119.907
119.849
119.942
120.23
120.739
121.721
123.115
125.021
127.307
129.708
131.886
133.531
134.436
134.404
133.472
131.799
129.71
127.687
126.244
125.604
126.485
131.39
126.605
125.916
125.828
126.167
126.924
128.164
129.866
131.938
134.282
136.799
139.402
142.021
144.605
147.116
149.529
151.828
154.002
156.049
157.964
159.75
161.407
162.936
164.34
165.62
166.776
167.811
168.722
169.51
170.173
170.708
171.112
171.381
171.512
171.502
171.357
171.072
170.638
170.044
169.278
168.332
167.199
165.867
164.324
162.559
160.561
158.318
155.82
153.062
150.038
146.753
143.219
139.466
135.555
131.618
128.002
124.826
122.289
120.574
119.856
119.644
119.523
119.61
120.073
121.353
123.582
127.16
131.944
137.401
142.737
147.071
149.635
150.057
148.318
144.564
139.366
133.787
129.216
126.513
126.489
129.045
126.366
126.149
126.886
128.767
131.921
136.264
141.487
147.294
153.387
159.531
165.554
171.344
176.835
181.992
186.803
191.271
195.406
199.225
202.745
205.983
208.956
211.68
214.167
216.429
218.476
220.315
221.951
223.388
224.627
225.667
226.507
227.142
227.568
227.777
227.762
227.517
227.027
226.278
225.253
223.937
222.312
220.359
218.056
215.381
212.311
208.82
204.886
200.483
195.59
190.188
184.263
177.813
170.851
163.417
155.591
147.531
139.502
131.971
125.854
121.65
119.508
119.324
119.301
119.98
121.913
125.778
131.838
139.564
147.872
155.139
159.182
160.698
158.923
154.421
147.107
138.886
131.847
127.467
126.647
128.191
126.4
126.996
129.742
134.79
142.029
150.895
160.7
170.87
180.969
190.719
199.96
208.615
216.664
224.116
231.001
237.354
243.216
248.624
253.614
258.218
262.463
266.373
269.969
273.266
276.278
279.014
281.48
283.681
285.619
287.29
288.693
289.82
290.664
291.216
291.461
291.388
290.979
290.215
289.075
287.536
285.574
283.162
280.27
276.87
272.928
268.412
263.286
257.517
251.071
243.916
236.025
227.377
217.964
207.796
196.908
185.364
173.3
160.962
148.76
137.378
127.899
121.91
119.215
119.05
119.512
121.512
126.18
133.356
142.266
150.864
156.77
159.553
159.834
155.336
148.196
139.899
132.536
127.816
126.859
127.771
126.66
129.269
135.569
145.361
157.773
171.657
186.022
200.188
213.763
226.555
238.493
249.579
259.85
269.361
278.169
286.331
293.902
300.928
307.453
313.513
319.14
324.361
329.197
333.666
337.783
341.558
344.997
348.103
350.878
353.319
355.42
357.173
358.568
359.59
360.225
360.453
360.254
359.606
358.482
356.854
354.691
351.961
348.63
344.66
340.013
334.651
328.533
321.618
313.868
305.245
295.714
285.247
273.824
261.442
248.122
233.876
218.756
202.895
186.506
169.977
153.928
139.363
127.952
121.338
118.913
118.775
119.932
123.343
129.63
137.358
144.431
149.018
149.987
147.607
142.902
136.901
131.304
127.787
127.016
127.411
127.707
134.019
145.725
161.293
179.042
197.517
215.728
233.139
249.53
264.845
279.11
292.384
304.739
316.245
326.97
336.975
346.315
355.041
363.194
370.814
377.932
384.578
390.774
396.538
401.885
406.826
411.366
415.509
419.254
422.597
425.529
428.041
430.118
431.744
432.897
433.556
433.695
433.287
432.302
430.707
428.466
425.542
421.895
417.484
412.267
406.202
399.245
391.355
382.491
372.616
361.695
349.702
336.618
322.44
307.195
290.873
273.492
255.129
235.891
215.998
195.772
175.698
156.597
139.814
127.531
120.649
118.292
118.175
119.417
122.828
127.936
133.703
136.474
136.82
135.042
132.201
129.393
127.832
127.602
127.492
131.657
144.502
162.583
183.769
206.03
228.078
249.216
269.165
287.881
305.407
321.816
337.186
351.592
365.103
377.783
389.689
400.876
411.392
421.278
430.574
439.311
447.519
455.22
462.432
469.169
475.441
481.252
486.603
491.492
495.911
499.848
503.289
506.217
508.608
510.438
511.678
512.298
512.263
511.54
510.091
507.877
504.854
500.981
496.214
490.508
483.821
476.11
467.335
457.457
446.444
434.267
420.904
406.346
390.595
373.676
355.603
336.406
316.164
294.967
272.965
250.348
227.356
204.352
181.893
160.847
142.586
129.149
120.98
117.214
116.84
116.746
119.204
122.827
126.422
128.833
129.48
128.856
128.331
122.936
131.743
144.419
164.083
187.632
212.889
238.148
262.56
285.763
307.683
328.361
347.867
366.271
383.642
400.044
415.537
430.177
444.019
457.113
469.503
481.232
492.335
502.844
512.784
522.178
531.041
539.385
547.214
554.532
561.333
567.611
573.352
578.539
583.151
587.163
590.544
593.262
595.279
596.558
597.055
596.727
595.533
593.429
590.368
586.306
581.198
575.004
567.684
559.201
549.526
538.629
526.489
513.089
498.42
482.484
465.292
446.868
427.247
406.483
384.659
361.885
338.305
314.096
289.461
264.643
239.942
215.736
192.526
170.952
151.843
136.209
125.64
118.449
113.907
111.456
110.438
110.23
110.07
109.386
107.854
106.265
147.105
167.771
192.623
219.614
247.027
273.838
299.616
324.222
347.658
369.965
391.191
411.384
430.595
448.873
466.27
482.835
498.618
513.663
528.014
541.707
554.776
567.247
579.142
590.479
601.268
611.516
621.22
630.377
638.974
646.995
654.417
661.212
667.347
672.785
677.483
681.394
684.469
686.653
687.894
688.134
687.317
685.395
682.317
678.035
672.507
665.699
657.582
648.137
637.35
625.217
611.743
596.939
580.823
563.42
544.762
524.889
503.851
481.709
458.55
434.483
409.649
384.221
358.405
332.439
306.596
281.18
256.52
232.977
210.949
190.872
173.173
158.253
146.218
136.999
130.417
126.325
124.337
124.407
126.878
132.595
174.768
200.261
227.943
256.36
284.519
311.955
338.484
364.048
388.641
412.271
434.956
456.723
477.605
497.643
516.879
535.358
553.124
570.216
586.673
602.526
617.802
632.523
646.705
660.356
673.481
686.074
698.126
709.619
720.529
730.824
740.467
749.411
757.606
764.993
771.509
777.085
781.649
785.125
787.437
788.51
788.27
786.645
783.578
779.016
772.92
765.263
756.033
745.234
732.885
719.022
703.693
686.956
668.881
649.542
629.016
607.382
584.717
561.105
536.635
511.411
485.554
459.217
432.578
405.851
379.28
353.136
327.709
303.303
280.235
258.827
239.391
222.227
207.604
195.74
186.827
181.022
178.482
179.432
184.315
193.436
211.519
238.968
267.382
295.862
323.975
351.533
378.436
404.626
430.067
454.739
478.638
501.778
524.184
545.89
566.934
587.354
607.189
626.475
645.243
663.52
681.326
698.676
715.575
732.024
748.015
763.529
778.543
793.022
806.924
820.196
832.777
844.597
855.576
865.627
874.655
882.557
889.226
894.554
898.431
900.748
901.403
900.304
897.364
892.522
885.734
876.982
866.273
853.64
839.147
822.878
804.944
785.473
764.606
742.494
719.288
695.133
670.169
644.52
618.305
591.635
564.621
537.386
510.075
482.858
455.939
429.552
403.957
379.426
356.239
334.68
315.023
297.539
282.494
270.155
260.802
254.675
251.977
252.882
257.58
265.985
253.224
280.701
308.638
336.562
364.285
391.693
418.704
445.246
471.264
496.727
521.626
545.97
569.779
593.086
615.923
638.329
660.336
681.977
703.279
724.262
744.939
765.316
785.389
805.147
824.566
843.616
862.252
880.421
898.055
915.078
931.399
946.914
961.508
975.055
987.416
998.444
1007.98
1015.88
1021.97
1026.11
1028.14
1027.93
1025.39
1020.4
1012.92
1002.94
990.478
975.599
958.416
939.079
917.772
894.707
870.118
844.249
817.346
789.65
761.383
732.748
703.919
675.045
646.251
617.648
589.342
561.45
534.112
507.496
481.803
457.263
434.124
412.64
393.066
375.649
360.63
348.254
338.759
332.325
329.043
328.92
331.876
337.63
296.48
323.06
350.073
377.255
404.451
431.54
458.447
485.107
511.47
537.511
563.222
588.614
613.709
638.538
663.134
687.532
711.765
735.861
759.843
783.726
807.517
831.212
854.799
878.254
901.54
924.609
947.4
969.837
991.83
1013.27
1034.04
1054
1072.99
1090.84
1107.35
1122.34
1135.57
1146.82
1155.88
1162.53
1166.55
1167.77
1166.03
1161.21
1153.21
1142.04
1127.73
1110.4
1090.2
1067.34
1042.09
1014.77
985.719
955.276
923.8
891.631
859.092
826.472
794.027
761.971
730.474
699.672
669.668
640.547
612.388
585.283
559.342
534.708
511.549
490.057
470.437
452.896
437.642
424.892
414.847
407.608
403.157
401.371
402.033
404.837
339.148
364.548
390.536
416.908
443.489
470.128
496.755
523.336
549.843
576.262
602.596
628.86
655.079
681.284
707.511
733.793
760.161
786.642
813.255
840.01
866.91
893.944
921.091
948.317
975.577
1002.81
1029.94
1056.87
1083.51
1109.71
1135.32
1160.19
1184.09
1206.83
1228.14
1247.76
1265.4
1280.75
1293.51
1303.38
1310.07
1313.32
1312.91
1308.68
1300.45
1288.25
1272.19
1252.44
1229.21
1202.76
1173.44
1141.65
1107.85
1072.48
1036.03
998.923
961.583
924.384
887.657
851.682
816.687
782.849
750.302
719.137
689.42
661.2
634.52
609.433
586.008
564.334
544.52
526.691
510.99
497.597
486.667
478.232
472.199
468.38
466.507
466.253
379.969
404.148
429.072
454.551
480.404
506.467
532.661
558.982
585.43
612.009
638.732
665.619
692.699
720.003
747.567
775.422
803.598
832.12
861.004
890.257
919.876
949.848
980.147
1010.74
1041.57
1072.57
1103.67
1134.78
1165.76
1196.48
1226.78
1256.44
1285.24
1312.9
1339.1
1363.52
1385.77
1405.47
1422.22
1435.64
1445.37
1451.08
1452.51
1449.48
1441.67
1429.02
1411.64
1389.75
1363.85
1334.28
1301.37
1265.6
1227.51
1187.65
1146.59
1104.86
1062.96
1021.35
980.412
940.485
901.839
864.689
829.195
795.469
763.586
733.59
705.502
679.329
655.074
632.738
612.331
593.876
577.443
563.151
551.086
541.21
533.378
527.353
522.83
519.451
418.061
440.995
464.78
489.24
514.212
539.542
565.137
590.995
617.144
643.603
670.392
697.536
725.063
753.003
781.389
810.25
839.611
869.493
899.908
930.86
962.343
994.34
1026.83
1059.77
1093.11
1126.79
1160.74
1194.85
1229
1263.03
1296.76
1329.95
1362.3
1393.51
1423.18
1450.93
1476.31
1498.89
1518.26
1533.97
1545.65
1552.99
1555.95
1554.74
1549.68
1540.07
1524.84
1503.14
1475.91
1444.23
1409.03
1370.69
1329.81
1286.97
1242.75
1197.77
1152.59
1107.72
1063.61
1020.63
979.075
939.197
901.172
865.128
831.147
799.275
769.527
741.897
716.36
692.877
671.398
651.88
634.332
618.803
605.293
593.704
583.851
575.467
568.217
561.731
452.639
474.247
496.764
520.039
543.934
568.313
593.078
618.212
643.748
669.712
696.126
723.013
750.4
778.311
806.772
835.806
865.43
895.659
926.499
957.949
990
1022.63
1055.82
1089.52
1123.69
1158.27
1193.17
1228.3
1263.53
1298.71
1333.63
1368.04
1401.65
1434.13
1465.08
1494.11
1520.78
1544.57
1564.75
1579.95
1587.83
1590.07
1588.45
1586.43
1584.08
1581.34
1576.55
1564.81
1542.27
1510.65
1475.4
1436.9
1395.81
1352.63
1307.92
1262.27
1216.25
1170.4
1125.21
1081.07
1038.31
997.196
957.92
920.629
885.418
852.342
821.415
792.62
765.92
741.261
718.577
697.809
678.946
661.98
646.85
633.415
621.458
610.687
600.749
591.263
482.886
503.025
524.098
545.976
568.55
591.695
615.313
639.367
663.872
688.851
714.32
740.298
766.804
793.855
821.466
849.646
878.406
907.747
937.667
968.158
999.195
1030.75
1062.8
1095.31
1128.22
1161.47
1194.98
1228.66
1262.38
1296
1329.33
1362.16
1394.23
1425.24
1454.85
1482.72
1508.45
1531.73
1551.75
1566.23
1575.34
1580.47
1582.92
1583.83
1583.12
1580.08
1573.22
1560.66
1541
1513.56
1481.52
1446.19
1408.2
1368.05
1326.22
1283.24
1239.65
1195.93
1152.58
1110
1068.53
1028.43
989.917
953.148
918.244
885.279
854.284
825.251
798.141
772.893
749.437
727.727
707.74
689.448
672.773
657.572
643.627
630.638
618.234
606.019
507.888
526.367
545.772
565.997
586.946
608.505
630.568
653.084
676.045
699.455
723.32
747.647
772.438
797.691
823.416
849.617
876.289
903.425
931.012
959.031
987.455
1016.25
1045.37
1074.79
1104.45
1134.28
1164.21
1194.15
1223.98
1253.59
1282.83
1311.51
1339.46
1366.44
1392.18
1416.42
1438.85
1459.21
1478
1493.85
1506.16
1514.91
1520.18
1521.86
1519.72
1513.57
1503.23
1488.62
1469.83
1447.19
1421.07
1391.86
1359.96
1325.8
1289.84
1252.57
1214.43
1175.89
1137.34
1099.14
1061.61
1025.01
989.552
955.4
922.692
891.524
861.949
833.977
807.593
782.752
759.399
737.495
717.017
697.928
680.153
663.571
647.997
633.166
618.72
604.254
526.532
543.13
560.608
578.878
597.857
617.425
637.471
657.924
678.748
699.937
721.485
743.388
765.634
788.209
811.107
834.322
857.842
881.649
905.724
930.043
954.576
979.287
1004.14
1029.08
1054.06
1079.02
1103.89
1128.6
1153.05
1177.14
1200.76
1223.78
1246.06
1267.44
1287.74
1306.75
1324.27
1340.06
1354
1365.86
1375.38
1382.3
1386.39
1387.43
1385.39
1380.19
1371.82
1360.3
1345.7
1328.17
1307.88
1285.07
1260.01
1233
1204.36
1174.42
1143.52
1111.98
1080.11
1048.21
1016.53
985.293
954.7
924.902
896.032
868.195
841.455
815.843
791.366
768.007
745.739
724.541
704.395
685.271
667.112
649.824
633.262
617.21
601.346
585.284
537.423
551.925
567.216
583.212
599.831
616.966
634.51
652.385
670.536
688.938
707.573
726.426
745.478
764.709
784.098
803.629
823.284
843.041
862.878
882.769
902.691
922.612
942.5
962.314
982.006
1001.52
1020.81
1039.82
1058.47
1076.68
1094.37
1111.45
1127.81
1143.35
1157.94
1171.47
1183.78
1194.75
1204.21
1212.04
1218.1
1222.27
1224.42
1224.43
1222.26
1217.88
1211.26
1202.42
1191.41
1178.29
1163.17
1146.19
1127.5
1107.27
1085.72
1063.03
1039.42
1015.11
990.308
965.209
940.002
914.857
889.917
865.31
841.148
817.524
794.504
772.128
750.419
729.381
709.01
689.299
670.241
651.816
633.986
616.688
599.821
583.223
566.623
549.669
538.852
551.07
563.921
577.363
591.316
605.681
620.363
635.286
650.392
665.639
680.996
696.439
711.945
727.492
743.058
758.622
774.164
789.663
805.095
820.44
835.678
850.789
865.746
880.524
895.084
909.384
923.387
937.05
950.318
963.131
975.431
987.157
998.245
1008.63
1018.23
1026.97
1034.78
1041.57
1047.26
1051.78
1055.04
1056.97
1057.51
1056.62
1054.26
1050.42
1045.07
1038.24
1029.93
1020.19
1009.07
996.65
983.003
968.23
952.44
935.748
918.276
900.151
881.499
862.442
843.097
823.573
803.965
784.36
764.837
745.465
726.299
707.377
688.725
670.357
652.277
634.488
616.986
599.763
582.794
566.04
549.439
532.882
516.157
498.958
528.896
538.792
549.126
559.889
571.031
582.475
594.141
605.96
617.879
629.856
641.855
653.848
665.807
677.712
689.542
701.279
712.906
724.405
735.756
746.942
757.948
768.757
779.354
789.717
799.822
809.638
819.138
828.293
837.069
845.428
853.334
860.749
867.638
873.962
879.679
884.75
889.131
892.78
895.655
897.715
898.924
899.243
898.645
897.108
894.614
891.149
886.706
881.286
874.899
867.561
859.299
850.144
840.139
829.33
817.771
805.521
792.644
779.206
765.272
750.911
736.188
721.162
705.89
690.422
674.808
659.09
643.305
627.48
611.637
595.787
579.939
564.096
548.259
532.425
516.58
500.703
484.759
468.682
452.325
435.436
505.848
513.5
521.412
529.583
537.992
546.591
555.324
564.139
572.989
581.839
590.659
599.425
608.113
616.704
625.181
633.528
641.731
649.776
657.648
665.331
672.815
680.087
687.135