/*--------------------------------*- C++ -*----------------------------------*\
| =========                 |                                                 |
| \\      /  F ield         | OpenFOAM: The Open Source CFD Toolbox           |
|  \\    /   O peration     | Version:  v2012                                 |
|   \\  /    A nd           | Website:  www.openfoam.com                      |
|    \\/     M anipulation  |                                                 |
\*---------------------------------------------------------------------------*/
FoamFile
{
    version     2.0;
    format      ascii;
    class       volScalarField;
    location    "597";
    object      k;
}
// * * * * * * * * * * * * * * * * * * * * * * * * * * * * * * * * * * * * * //

dimensions      [0 2 -2 0 0 0 0];


internalField   nonuniform List<scalar> 
6598
(
1.67867
2.11229
2.19142
2.2119
2.22073
2.22073
2.2119
2.19142
2.11229
1.67867
0.950846
1.51108
1.66401
1.71265
1.728
1.728
1.71265
1.66401
1.51108
0.950846
0.610541
1.12281
1.29876
1.36474
1.38686
1.38686
1.36474
1.29876
1.12281
0.610541
0.428283
0.865394
1.03892
1.11232
1.13914
1.13914
1.11232
1.03892
0.865395
0.428283
0.320028
0.688244
0.849204
0.923517
0.952642
0.952642
0.923518
0.849206
0.688245
0.320029
0.25041
0.561753
0.707198
0.778775
0.80833
0.808331
0.778776
0.7072
0.561755
0.250411
0.20279
0.468382
0.598425
0.665475
0.694233
0.694234
0.665477
0.598428
0.468385
0.202791
0.168597
0.397437
0.513347
0.575182
0.602443
0.602444
0.575185
0.513351
0.397441
0.168599
0.143078
0.342172
0.445549
0.502092
0.52752
0.527521
0.502096
0.445554
0.342178
0.14308
0.123426
0.298195
0.390622
0.442109
0.465598
0.4656
0.442114
0.390629
0.298203
0.123429
0.107901
0.262552
0.34547
0.392281
0.413863
0.413865
0.392288
0.34548
0.262563
0.107905
0.0953732
0.233205
0.307874
0.350442
0.370217
0.370221
0.350452
0.307887
0.23322
0.0953782
0.0850821
0.208709
0.276212
0.314971
0.333075
0.333081
0.314984
0.276231
0.20873
0.0850888
0.0765002
0.188018
0.24928
0.284636
0.301219
0.301226
0.284655
0.249306
0.188047
0.0765094
0.069251
0.170358
0.226164
0.258491
0.273698
0.273708
0.258517
0.2262
0.170397
0.0692635
0.0630588
0.155146
0.206165
0.235797
0.249767
0.24978
0.235833
0.206214
0.155199
0.0630758
0.057718
0.141934
0.188736
0.21597
0.22883
0.228848
0.21602
0.188805
0.142006
0.0577411
0.053072
0.130376
0.173448
0.198545
0.210412
0.210436
0.198612
0.173544
0.130473
0.053103
0.0489994
0.120196
0.159958
0.183147
0.194125
0.194157
0.183238
0.160089
0.12033
0.0490411
0.0454058
0.111181
0.147997
0.169484
0.179667
0.179711
0.169607
0.148173
0.111333
0.0454599
0.0422937
0.103338
0.137571
0.157561
0.167046
0.167104
0.157727
0.137809
0.103579
0.042498
0.0395064
0.0962996
0.128217
0.146865
0.155727
0.155804
0.147086
0.12854
0.0966597
0.0408235
0.0369967
0.0899464
0.119772
0.137209
0.145509
0.145609
0.137495
0.120198
0.090522
0.0402017
0.034726
0.0841864
0.112117
0.128456
0.13625
0.136375
0.128809
0.112627
0.0851312
0.0406643
0.0326625
0.0789423
0.10515
0.120494
0.127831
0.127978
0.120897
0.105738
0.0805078
0.0422738
0.030779
0.0741488
0.0987858
0.113224
0.120147
0.120318
0.113668
0.0995212
0.0766635
0.0448712
0.0290525
0.0697472
0.0929456
0.106556
0.113105
0.113306
0.10709
0.0939676
0.0734895
0.0481896
0.0274133
0.0655704
0.0874156
0.100253
0.106457
0.106701
0.100942
0.0888943
0.0708808
0.0520544
0.0259029
0.0617158
0.0823162
0.0944459
0.10034
0.100643
0.095358
0.0844129
0.0688828
0.0559013
0.024506
0.0581503
0.0776068
0.0890912
0.0947111
0.0950913
0.0902942
0.0804695
0.0673694
0.0589127
0.0232091
0.0548398
0.0732428
0.0841393
0.0895191
0.0899945
0.0856978
0.0769998
0.0662145
0.0611638
0.0220002
0.0517543
0.0691856
0.0795463
0.0847181
0.0853066
0.0815195
0.0739357
0.0652694
0.0627142
0.0208686
0.0488676
0.0654008
0.0752739
0.0802678
0.0809864
0.0777123
0.0712054
0.0643819
0.0636198
0.0198052
0.0461566
0.0618584
0.0712882
0.0761326
0.0769961
0.0742314
0.0687378
0.0634801
0.063943
0.0188013
0.0436008
0.0585313
0.067559
0.0722805
0.0733015
0.0710352
0.0664747
0.0625093
0.0637461
0.0178494
0.0411818
0.0553959
0.0640597
0.068683
0.0698713
0.0680854
0.0643667
0.0614334
0.0630916
0.0169426
0.0388835
0.0524307
0.0607664
0.0653144
0.0666774
0.065348
0.0623735
0.0602347
0.0620436
0.0160747
0.0366917
0.0496171
0.057658
0.0621521
0.0636944
0.0627939
0.060465
0.0589129
0.06067
0.01524
0.034594
0.0469384
0.0547157
0.0591756
0.0609001
0.0603986
0.058622
0.0574833
0.0590434
0.0144334
0.0325794
0.0443797
0.0519224
0.0563666
0.058275
0.058143
0.0568353
0.0559748
0.0572425
0.0136502
0.0306385
0.0419274
0.0492626
0.0537081
0.0558015
0.0560121
0.0551045
0.054426
0.0553505
0.0128863
0.0287628
0.0395689
0.046721
0.0511837
0.0534633
0.0539941
0.0534347
0.0528804
0.0534525
0.0121378
0.0269452
0.0372918
0.0442822
0.0487764
0.0512439
0.0520779
0.0518328
0.0513802
0.0516293
0.0114014
0.025179
0.0350833
0.0419295
0.0464671
0.0491244
0.0502505
0.050302
0.049959
0.0499488
0.0106738
0.0234583
0.0329301
0.0396435
0.0442333
0.0470817
0.0484933
0.0488375
0.0486347
0.0484561
0.00995219
0.021777
0.0308175
0.0374021
0.0420476
0.0450863
0.0467792
0.047421
0.0474031
0.0471643
0.00923366
0.0201292
0.028729
0.0351789
0.0398763
0.0431003
0.0450701
0.0460179
0.0462341
0.0460484
0.00851527
0.0185087
0.0266467
0.0329433
0.0376788
0.0410767
0.0433154
0.0445756
0.045071
0.0450439
0.00779372
0.0169093
0.0245513
0.0306606
0.035408
0.0389588
0.0414518
0.0430247
0.0438329
0.0440518
0.007065
0.0153245
0.0224227
0.0282938
0.0330117
0.0366833
0.0394066
0.0412822
0.0424214
0.0429484
0.00632371
0.0137465
0.0202412
0.0258058
0.0304372
0.034184
0.0371026
0.0392591
0.0407293
0.0415989
0.00556181
0.0121643
0.0179935
0.02317
0.0276413
0.0314031
0.0344691
0.0368711
0.0386544
0.0398738
0.0047628
0.0105556
0.0156635
0.0203753
0.0246066
0.0283101
0.031461
0.034058
0.0361182
0.037669
0.00389305
0.00906324
0.0133464
0.0174786
0.0213691
0.0249266
0.0280853
0.0308099
0.0330883
0.0349248
0.00296815
0.00780468
0.0113337
0.014758
0.0181481
0.0214181
0.0244652
0.0272134
0.0296206
0.0316616
0.00197246
0.00661199
0.00972681
0.012531
0.0153363
0.0181608
0.0209237
0.0235364
0.0259269
0.0280445
0.00108261
0.00519637
0.00824541
0.0107765
0.0131666
0.0155525
0.0179346
0.0202561
0.0224534
0.0244694
0.000845531
0.00337491
0.0065068
0.0091116
0.011419
0.0135835
0.015659
0.0176428
0.0195152
0.021251
0.000846633
0.00205729
0.00479456
0.00730389
0.00965857
0.0117266
0.0135755
0.0152196
0.0166832
0.0179941
0.000950965
0.00167012
0.00252682
0.00375835
0.0050887
0.00625872
0.00714749
0.00791758
0.00858366
0.00914454
0.00897789
0.00330266
0.00325048
0.00327053
0.00323767
0.00310606
0.00282135
0.0025568
0.00231823
0.00210007
0.00189755
0.00171505
0.00155146
0.00140437
0.00127002
0.00114908
0.00104287
0.000945789
0.000854059
0.000764788
0.000675288
0.000582589
0.000480772
0.000361943
0.000206354
0.0174847
0.00744493
0.00652847
0.00631347
0.0061208
0.0057803
0.00522752
0.0045719
0.00399572
0.0035124
0.00311096
0.00278477
0.00252261
0.00231004
0.00213336
0.00197121
0.00180511
0.00163344
0.00145767
0.00128155
0.00111132
0.000952938
0.000818768
0.000687177
0.000382453
0.0264028
0.013083
0.0092816
0.00798941
0.00718843
0.00639637
0.00551196
0.0045633
0.00379725
0.00322852
0.00280469
0.00249351
0.00226376
0.00209654
0.00197347
0.00187438
0.00177419
0.00166519
0.0015413
0.00139976
0.00124366
0.00108218
0.00093434
0.000799374
0.00044064
0.0363084
0.0199757
0.0126662
0.0099078
0.00815183
0.00668531
0.00538447
0.004261
0.00332974
0.00268759
0.00224312
0.00194841
0.00175445
0.0016373
0.0015729
0.00153938
0.00151145
0.00147411
0.00141676
0.0013323
0.00121917
0.00108345
0.000941877
0.000798565
0.000444894
0.0461002
0.0288305
0.017462
0.0125224
0.00945516
0.00714441
0.00535268
0.00401875
0.00304208
0.00233976
0.00183946
0.00151917
0.00132464
0.00122835
0.00119936
0.00120817
0.00123434
0.00125038
0.00124299
0.00120385
0.0011295
0.00102286
0.000895966
0.00075131
0.000419476
0.0536417
0.0382897
0.0242078
0.0161628
0.0112883
0.00793545
0.00557417
0.00397461
0.00290263
0.00216957
0.00165281
0.00129723
0.00107721
0.000970866
0.000950008
0.00097812
0.00102943
0.00107078
0.00108775
0.0010727
0.00102224
0.000937616
0.000826457
0.000686789
0.000381153
0.0589592
0.0475088
0.0316319
0.0206457
0.0137619
0.00912785
0.00607863
0.00414781
0.00293531
0.00215207
0.00161651
0.00124425
0.00100375
0.000874879
0.000833898
0.000849844
0.000894164
0.000935201
0.000956403
0.000949917
0.000913049
0.000846852
0.000754614
0.00062824
0.000343589
0.063016
0.0550582
0.0388976
0.0257165
0.0167724
0.010728
0.00686453
0.00453675
0.00313697
0.00227577
0.00170951
0.00131868
0.00105144
0.000885465
0.000804645
0.000786308
0.000804611
0.000831544
0.000846911
0.000843019
0.000818894
0.000778392
0.000726035
0.000646263
0.000392178
0.0660681
0.0610132
0.0456518
0.0311808
0.0202995
0.0127596
0.0079538
0.00515182
0.00352048
0.00254868
0.00193145
0.0015153
0.00122094
0.00101251
0.000877298
0.000805676
0.000785105
0.000795747
0.000808326
0.000816705
0.00082347
0.000837621
0.000871679
0.000951728
0.00126485
0.0682695
0.0654094
0.0517434
0.0367149
0.0240522
0.0150453
0.00930763
0.00597942
0.00409484
0.00298601
0.00229505
0.0018451
0.00153595
0.00131045
0.00114461
0.00103284
0.000977788
0.000985603
0.00102173
0.00108628
0.00119366
0.00137269
0.00166559
0.00209151
0.00256573
0.0697477
0.0685134
0.0567336
0.0414869
0.0277139
0.0174727
0.010848
0.00701807
0.00487484
0.00361571
0.00282933
0.00232572
0.00200062
0.00178832
0.00165095
0.00157048
0.00154377
0.00157833
0.00166785
0.00181212
0.00201563
0.00227465
0.00256362
0.00284529
0.00310268
0.0705684
0.0705321
0.0605524
0.0455877
0.0312401
0.0199889
0.012556
0.00824764
0.00585578
0.00444985
0.00356248
0.00298281
0.00260574
0.00237084
0.00224086
0.00218938
0.00219894
0.00225717
0.00235496
0.00249138
0.00266297
0.00286566
0.00310217
0.00340051
0.00374588
0.0708127
0.0716154
0.0632314
0.0491035
0.03461
0.0225555
0.0143966
0.00962837
0.00700362
0.00546281
0.00449256
0.00385227
0.00341451
0.00311747
0.00293663
0.00285279
0.00285077
0.00290075
0.00300046
0.00314218
0.0033265
0.00355528
0.00384068
0.00419447
0.00459344
0.0705203
0.0718925
0.0649113
0.0520062
0.0375819
0.0251405
0.0163551
0.0111277
0.00827221
0.00660824
0.00556641
0.00490522
0.00446051
0.00414614
0.00393399
0.00381153
0.00377354
0.0037897
0.00386616
0.00400498
0.00421358
0.00447489
0.00476813
0.00509632
0.00544108
0.0697297
0.0714856
0.0657901
0.0543114
0.0403142
0.0278194
0.0184687
0.0127395
0.00960587
0.00785725
0.00676774
0.0060743
0.00563127
0.00533577
0.00513688
0.00501245
0.00493575
0.00492361
0.00497652
0.00509159
0.0052601
0.00547062
0.00571354
0.00597992
0.00625571
0.0684882
0.0704996
0.0659905
0.0560039
0.0428898
0.0304851
0.0208382
0.0145161
0.010993
0.00911504
0.00801436
0.00730833
0.00685771
0.00656232
0.00636573
0.00622624
0.00613619
0.00610298
0.00612582
0.00620099
0.00632228
0.00648017
0.00666457
0.00686549
0.00707358
0.0668503
0.0690188
0.0655956
0.0570722
0.0453478
0.0332102
0.0233686
0.0165838
0.0125385
0.0103584
0.00919382
0.00849964
0.00806235
0.00777977
0.00757957
0.00743751
0.00734682
0.00730395
0.00730524
0.00734617
0.0074216
0.00752564
0.0076517
0.00779322
0.00794491
0.0648769
0.0671161
0.0646788
0.0576103
0.0474339
0.0360433
0.0261101
0.0188932
0.0143474
0.0117712
0.0103702
0.00959727
0.00913726
0.00885378
0.00867498
0.00856392
0.00850177
0.00847769
0.00848395
0.00851339
0.00856359
0.00863176
0.00871542
0.00881205
0.00891937
0.0626366
0.0648582
0.0632858
0.0576221
0.0489817
0.0389388
0.0291066
0.0215362
0.0164469
0.0133883
0.0116669
0.0107164
0.0101812
0.0098756
0.0097081
0.00962712
0.0096016
0.00961337
0.00964996
0.00970094
0.00976066
0.00982288
0.00988911
0.00996051
0.0100378
0.0602078
0.062317
0.0614679
0.0571209
0.0499902
0.0413332
0.0324565
0.0246219
0.0190144
0.0154094
0.0132723
0.012062
0.0113921
0.0110259
0.0108384
0.0107617
0.0107554
0.0107945
0.0108627
0.0109475
0.0110373
0.0111224
0.0111998
0.0112692
0.0113344
0.0576806
0.059577
0.0592839
0.0561166
0.050439
0.0431869
0.0354365
0.028169
0.0221616
0.0179946
0.0153539
0.013787
0.0128954
0.0124108
0.0121695
0.0120755
0.0120753
0.0121346
0.0122289
0.0123399
0.0124543
0.0125646
0.0126615
0.012741
0.0128038
0.0551554
0.056741
0.0568148
0.0546428
0.0503143
0.0444497
0.0378875
0.0314358
0.0257414
0.0212622
0.0180542
0.0160516
0.01485
0.0141638
0.0138053
0.0136531
0.0136314
0.0136903
0.013795
0.013921
0.0140505
0.014172
0.0142794
0.0143685
0.0144357
0.0527375
0.0539311
0.0541739
0.0527716
0.0496189
0.0450734
0.0397302
0.0342283
0.0291097
0.0247644
0.0213838
0.0189882
0.0174099
0.0164351
0.0158895
0.0156194
0.0155266
0.0155462
0.0156326
0.0157519
0.0158812
0.0160058
0.0161169
0.0162103
0.0162874
0.0505265
0.0512807
0.0515076
0.0506241
0.0484193
0.0450461
0.0408854
0.0363999
0.0320277
0.0281079
0.0248469
0.022329
0.0205161
0.0192951
0.0185307
0.0180937
0.0178825
0.0178204
0.017851
0.0179295
0.0180304
0.0181388
0.0182443
0.0183413
0.0184295
0.0486019
0.0489173
0.0489831
0.0483707
0.046847
0.0444289
0.041326
0.0378459
0.0343078
0.0309882
0.0280838
0.0257012
0.0238641
0.0225313
0.0216219
0.0210408
0.0207009
0.020524
0.0204612
0.0204706
0.0205256
0.0206086
0.0207071
0.0208131
0.0209184
0.0470069
0.0469392
0.0467626
0.0462126
0.0450983
0.0433721
0.0411246
0.0385369
0.0358238
0.0331875
0.0307891
0.0287357
0.027076
0.0258061
0.0248824
0.0242371
0.0238055
0.0235318
0.0233846
0.0233375
0.0233618
0.023433
0.0235348
0.0236543
0.0237811
0.0457346
0.0453907
0.0449678
0.0443447
0.043407
0.0421028
0.0404604
0.0385734
0.0365702
0.0345855
0.0327381
0.0311166
0.0297723
0.0287142
0.0279154
0.0273195
0.026886
0.026605
0.0264506
0.0263967
0.0264197
0.0264987
0.0266165
0.0267589
0.0269144
0.044723
0.0442441
0.0436439
0.0429048
0.0419913
0.0408836
0.0395952
0.0381738
0.0366915
0.0352304
0.0338684
0.0326691
0.0316735
0.0308921
0.0303071
0.0298586
0.0295395
0.0293403
0.0292465
0.0292412
0.0293074
0.0294289
0.0295896
0.029777
0.0299799
0.0438588
0.0433968
0.0427395
0.0419288
0.0409888
0.0399396
0.0388077
0.0376309
0.0364559
0.0353332
0.0343111
0.03343
0.0327173
0.0321802
0.0318056
0.0315418
0.0313739
0.0312957
0.0312994
0.031375
0.031511
0.0316954
0.0319167
0.0321643
0.0324273
0.0429909
0.0426842
0.042109
0.0413307
0.0404041
0.0393786
0.0383019
0.0372199
0.0361758
0.0352095
0.0343549
0.0336388
0.0330781
0.0326778
0.0324283
0.0322998
0.032249
0.03227
0.0323554
0.0324978
0.0326897
0.0329228
0.0331886
0.0334785
0.0337831
0.0419496
0.0419062
0.0415404
0.0409169
0.0400987
0.0391485
0.0381266
0.0370889
0.0360849
0.0351559
0.0343346
0.0336443
0.0330993
0.0327043
0.0324553
0.0323376
0.0323269
0.0323758
0.0324798
0.0326325
0.0328269
0.0330565
0.033315
0.0335959
0.0338917
0.0405707
0.0408585
0.0407942
0.0404321
0.0398299
0.0390486
0.03815
0.0371934
0.0362327
0.0353136
0.0344727
0.0337369
0.0331234
0.0326407
0.0322896
0.0320646
0.0319542
0.0319386
0.0319981
0.0320971
0.03223
0.032393
0.0325819
0.0327921
0.0330171
0.0387143
0.0393586
0.0396442
0.0396126
0.0393103
0.0387889
0.0381033
0.0373088
0.0364576
0.0355969
0.034766
0.033996
0.033309
0.0327194
0.032234
0.0318539
0.0315757
0.0313917
0.0312911
0.0312581
0.0312801
0.031345
0.0314355
0.03154
0.031656
0.0362863
0.0372715
0.0379106
0.0382322
0.0382708
0.0380664
0.0376634
0.0371085
0.0364481
0.0357257
0.0349801
0.0342436
0.0335421
0.0328942
0.0323125
0.0318041
0.0313719
0.0310151
0.0307304
0.0305115
0.0303515
0.0302423
0.0301738
0.0301368
0.0301242
0.0332724
0.0345452
0.0354984
0.0361493
0.0365213
0.0366431
0.0365487
0.036275
0.0358604
0.0353424
0.0347557
0.0341313
0.0334953
0.0328686
0.0322671
0.0317024
0.0311819
0.0307098
0.030288
0.0299161
0.0295922
0.0293129
0.0290739
0.0288706
0.0286989
0.0297956
0.0312607
0.0324445
0.0333542
0.0340035
0.0344109
0.0346004
0.0345998
0.0344395
0.03415
0.0337608
0.0332992
0.0327895
0.0322524
0.0317048
0.0311602
0.0306289
0.0301184
0.0296337
0.0291779
0.0287528
0.0283587
0.027995
0.0276605
0.0273548
0.0261932
0.0276954
0.0289728
0.0300152
0.0308257
0.0314177
0.0318071
0.0320135
0.0320595
0.0319686
0.0317643
0.0314691
0.0311039
0.0306872
0.0302352
0.0297614
0.0292769
0.0287905
0.028309
0.0278376
0.02738
0.0269386
0.0265152
0.0261106
0.0257269
0.0227617
0.0241114
0.0252943
0.026303
0.0271315
0.0277648
0.0282189
0.0285108
0.0286578
0.0286781
0.0285896
0.0284099
0.0281556
0.0278419
0.0274825
0.0270893
0.0266726
0.0262408
0.0258008
0.0253584
0.024918
0.0244828
0.0240556
0.0236384
0.023234
0.0191108
0.0200974
0.0209561
0.0216727
0.0222539
0.0227023
0.023026
0.0232351
0.0233407
0.0233542
0.023287
0.0231503
0.0229551
0.0227115
0.0224287
0.0221151
0.021778
0.0214238
0.0210578
0.0206846
0.0203078
0.0199306
0.0195554
0.0191842
0.0188196
0.00960245
0.0100044
0.0103599
0.0106619
0.0109116
0.0111124
0.0112672
0.011379
0.0114508
0.0114861
0.0114882
0.0114606
0.0114069
0.0113304
0.0112343
0.0111218
0.0109956
0.0108584
0.0107124
0.0105598
0.0104025
0.0102419
0.0100795
0.00991636
0.00975351
0.0004176
0.00101515
0.00204384
0.00235781
0.00256173
0.00271846
0.00294829
0.00308972
0.00350064
0.00343625
0.00380988
0.00433071
0.00419055
0.00462889
0.00507138
0.0050159
0.00538292
0.00572416
0.00578288
0.00607401
0.00634085
0.0065214
0.00675043
0.00696475
0.00727697
0.00745822
0.00763276
0.00809807
0.00823985
0.00838067
0.00903111
0.0091383
0.00924808
0.0101178
0.0101958
0.0102773
0.0113955
0.0114523
0.0115102
0.0128535
0.0128951
0.0129343
0.0144834
0.0145191
0.0145497
0.0163447
0.016388
0.0164235
0.0185019
0.0185609
0.0186116
0.0210117
0.0210934
0.0211674
0.0238996
0.0240097
0.0241138
0.0270637
0.0272079
0.0273489
0.0301745
0.0303668
0.0305586
0.0326764
0.0329247
0.033175
0.0340688
0.0343552
0.0346457
0.0341691
0.0344499
0.034737
0.0332305
0.0334494
0.0336762
0.0317691
0.0318883
0.0320147
0.0301299
0.0301483
0.0301776
0.0285677
0.028456
0.0283595
0.0271028
0.0268713
0.0266553
0.0254002
0.0250903
0.0247926
0.0228841
0.0225461
0.022216
0.0185021
0.0181917
0.0178863
0.00961125
0.00947079
0.0093322
0.000110456
0.000261725
0.000394948
0.000506397
0.000605432
0.000693912
0.000775096
0.000850565
0.000921362
0.000988194
0.00105158
0.00111192
0.00116956
0.00122481
0.00127795
0.00132926
0.00137898
0.00142737
0.00147467
0.0015211
0.0015669
0.0016123
0.00165751
0.00170277
0.00174832
0.00179441
0.00184131
0.00188933
0.0019388
0.00199011
0.00204374
0.00210024
0.0021603
0.00222481
0.00229285
0.00236362
0.00243718
0.00251376
0.00259404
0.00267784
0.00276501
0.0028562
0.00295175
0.00305194
0.00315707
0.00326743
0.00338334
0.00350506
0.00363283
0.0037668
0.00390703
0.00405335
0.00420528
0.00436178
0.00452101
0.0046798
0.00483294
0.00497195
0.0050841
0.00515722
0.00519677
0.00520731
0.00519295
0.00513797
0.00501467
0.00483623
0.00459325
0.00430065
0.00397769
0.00363492
0.00328326
0.00292602
0.00260633
0.00231251
0.00203286
0.00176022
0.00148793
0.00120469
0.000895167
0.00051425
0.000431826
0.000800223
0.00100918
0.00118974
0.00138127
0.0015774
0.00176921
0.00195663
0.00213871
0.00231482
0.00248446
0.0026474
0.00280362
0.00295328
0.00309671
0.00323435
0.00336668
0.00349426
0.00361766
0.00373744
0.00385418
0.00396844
0.00408076
0.00419169
0.00430174
0.00441141
0.00452123
0.00463168
0.00474325
0.00485644
0.00497174
0.00508964
0.00521053
0.00533504
0.00546553
0.00560209
0.00574418
0.00589217
0.00604634
0.00620639
0.00637289
0.00654663
0.00672813
0.0069179
0.00711641
0.00732414
0.00754152
0.00776893
0.00800664
0.00825479
0.00851325
0.00878153
0.00905856
0.00934242
0.0096299
0.00991578
0.0101921
0.0104478
0.0106691
0.010836
0.0109188
0.0109142
0.0108121
0.0105973
0.0102284
0.00975129
0.00916059
0.00850688
0.00782901
0.00714842
0.00648886
0.00585825
0.00518959
0.00448913
0.00378134
0.00310256
0.00249196
0.00198772
0.00156361
0.000844296
0.000659433
0.0012619
0.00154161
0.00181
0.00209917
0.00239121
0.00267409
0.00294478
0.00320199
0.00344582
0.00367689
0.00389606
0.00410421
0.00430222
0.00449092
0.00467112
0.0048436
0.0050091
0.00516836
0.00532209
0.00547098
0.00561571
0.00575693
0.00589529
0.0060314
0.00616588
0.00629932
0.00643233
0.00656547
0.00669934
0.00683449
0.0069715
0.0071109
0.00725322
0.00739896
0.00755065
0.00770825
0.00787136
0.00804001
0.00821458
0.00839549
0.00858323
0.00877824
0.00898093
0.00919167
0.00941074
0.00963832
0.00987448
0.010119
0.0103715
0.0106311
0.0108963
0.0111651
0.0114343
0.0116994
0.011954
0.0121893
0.012394
0.0125544
0.0126498
0.0126495
0.0125439
0.0123214
0.0119716
0.0114889
0.0108762
0.0101067
0.00929532
0.0084708
0.00764003
0.00684959
0.00613463
0.00546222
0.0047788
0.00408082
0.00338425
0.00272728
0.00216417
0.00169602
0.000895588
0.000863791
0.00169303
0.00206746
0.00242513
0.002789
0.0031436
0.0034783
0.00379253
0.00408776
0.00436619
0.00462992
0.00488067
0.00511979
0.00534829
0.00556699
0.00577658
0.0059777
0.00617094
0.0063569
0.00653621
0.00670946
0.00687727
0.00704026
0.00719904
0.00735424
0.00750645
0.00765628
0.00780435
0.00795123
0.00809752
0.00824381
0.00839066
0.00853865
0.00868831
0.00884021
0.00899488
0.00915511
0.00932016
0.00948989
0.00966448
0.00984414
0.0100292
0.0102198
0.0104162
0.0106185
0.0108267
0.0110404
0.0112593
0.0114825
0.0117087
0.0119364
0.012163
0.0123854
0.0125996
0.0128003
0.0129808
0.0131323
0.0132443
0.0133037
0.0132939
0.0131862
0.0129624
0.0126162
0.0121431
0.0115498
0.0108479
0.0100492
0.00917706
0.00825394
0.00730529
0.00636304
0.00555115
0.00487199
0.00425646
0.00366447
0.00308373
0.00252526
0.00202012
0.00156901
0.000822193
0.00106511
0.00212533
0.0025996
0.00302758
0.00344009
0.00382458
0.00417843
0.00450846
0.00481963
0.00511583
0.00539961
0.00567258
0.00593572
0.00618956
0.00643444
0.00667061
0.0068983
0.0071178
0.00732945
0.00753364
0.00773081
0.00792146
0.0081061
0.00828528
0.00845956
0.00862952
0.00879572
0.00895877
0.00911924
0.00927771
0.00943477
0.00959099
0.00974696
0.00990323
0.0100604
0.010219
0.0103797
0.0105451
0.0107144
0.0108874
0.0110642
0.0112449
0.0114296
0.0116182
0.0118107
0.0120065
0.0122052
0.0124058
0.012607
0.0128069
0.0130032
0.0131927
0.0133714
0.0135343
0.0136758
0.0137891
0.0138655
0.0138943
0.0138632
0.0137577
0.0135618
0.0132601
0.0128413
0.0122898
0.0116208
0.0108547
0.0100049
0.00908044
0.00809095
0.00704742
0.00599332
0.00499085
0.00414146
0.00351798
0.00301802
0.00257769
0.00216273
0.00176597
0.00137611
0.000701955
0.00132033
0.00259122
0.00314387
0.00361178
0.00404021
0.00442762
0.00477696
0.00510685
0.00542305
0.00572975
0.00602876
0.00632077
0.00660584
0.0068837
0.00715399
0.00741639
0.00767068
0.00791675
0.00815465
0.00838453
0.00860663
0.00882131
0.00902895
0.00923003
0.00942502
0.00961445
0.00979886
0.00997881
0.0101549
0.0103276
0.0104976
0.0106655
0.0108318
0.0109971
0.011162
0.011327
0.0114928
0.0116609
0.0118325
0.0120072
0.0121849
0.0123655
0.0125491
0.0127356
0.0129246
0.0131158
0.0133082
0.013501
0.0136924
0.0138805
0.0140625
0.014235
0.0143937
0.014533
0.0146467
0.014727
0.0147661
0.0147544
0.0146794
0.0145274
0.0142822
0.0139303
0.0134619
0.012873
0.0121688
0.011372
0.0104954
0.00955168
0.0085461
0.00746362
0.00630614
0.00511761
0.00398738
0.00307718
0.00249764
0.00211791
0.00181432
0.00151722
0.00117403
0.000602581
0.00166583
0.00319917
0.00372316
0.00418004
0.00458838
0.0049506
0.00528216
0.00560493
0.00592254
0.00623761
0.00655048
0.00686054
0.00716677
0.00746804
0.00776331
0.00805168
0.0083325
0.0086053
0.00886983
0.00912599
0.00937385
0.0096136
0.00984551
0.0100699
0.0102873
0.010498
0.0107027
0.0109017
0.0110957
0.0112853
0.0114709
0.0116533
0.011833
0.0120106
0.0121867
0.0123621
0.0125371
0.0127126
0.0128908
0.0130719
0.0132557
0.0134422
0.0136315
0.0138234
0.0140179
0.0142145
0.0144125
0.014611
0.0148085
0.015003
0.015192
0.0153722
0.0155395
0.0156888
0.0158141
0.0159036
0.0159533
0.01595
0.0158857
0.015751
0.0155222
0.0151825
0.0147213
0.0141313
0.0134153
0.0125932
0.011698
0.0107254
0.00971146
0.00867448
0.00758041
0.00640018
0.00514267
0.00387661
0.00277977
0.00214122
0.00176313
0.00146189
0.00110946
0.000556054
0.00241243
0.00379323
0.00429918
0.0047197
0.00508269
0.00540528
0.00571717
0.00603222
0.00635132
0.00667468
0.00700102
0.00732849
0.0076551
0.00797897
0.00829846
0.00861219
0.00891912
0.00921844
0.00950963
0.00979238
0.0100666
0.0103322
0.0105894
0.0108384
0.0110797
0.0113135
0.0115403
0.0117605
0.0119748
0.0121837
0.0123877
0.0125875
0.0127836
0.0129768
0.0131677
0.0133569
0.0135452
0.0137333
0.0139218
0.0141135
0.0143082
0.0145058
0.0147067
0.0149108
0.0151183
0.0153289
0.0155423
0.0157578
0.0159742
0.0161901
0.0164033
0.0166109
0.0168093
0.0169937
0.0171585
0.0172965
0.0174
0.0174587
0.0174604
0.0173914
0.0172349
0.0169745
0.0165942
0.0160797
0.0154224
0.0146374
0.0137371
0.012758
0.0117049
0.0106572
0.00962641
0.00860801
0.00758197
0.00650679
0.00532445
0.00407421
0.00308218
0.00259333
0.00220531
0.00192501
0.00335082
0.00435183
0.00482719
0.00519369
0.00550491
0.0057956
0.00609506
0.0064057
0.00672754
0.00705908
0.00739789
0.00774124
0.00808642
0.008431
0.00877288
0.00911031
0.00944189
0.00976656
0.0100835
0.0103923
0.0106925
0.010984
0.0112669
0.0115412
0.0118071
0.0120651
0.0123155
0.0125586
0.012795
0.0130252
0.0132498
0.0134694
0.0136847
0.0138962
0.0141048
0.0143111
0.0145159
0.0147201
0.0149242
0.0151301
0.0153395
0.0155525
0.0157695
0.0159909
0.016217
0.0164479
0.0166837
0.0169241
0.0171685
0.0174159
0.0176647
0.0179128
0.0181573
0.0183944
0.0186192
0.018826
0.0190075
0.0191546
0.0192564
0.0192999
0.0192703
0.0191516
0.0189264
0.0185773
0.0180894
0.017453
0.0166685
0.0157487
0.0147163
0.0136232
0.0125316
0.0114896
0.0105435
0.00972845
0.00905466
0.00851476
0.0081277
0.00802702
0.00841056
0.00916724
0.0041948
0.00487588
0.00528736
0.00560037
0.0058757
0.00615323
0.00644438
0.00675196
0.00707554
0.0074129
0.00776102
0.00811665
0.00847666
0.00883823
0.00919892
0.00955667
0.00990982
0.0102571
0.0105974
0.01093
0.0112545
0.0115705
0.0118779
0.0121767
0.0124669
0.0127489
0.0130229
0.0132892
0.0135484
0.0138007
0.0140469
0.0142875
0.0145232
0.0147546
0.0149825
0.0152077
0.015431
0.0156533
0.0158754
0.0160982
0.0163246
0.0165553
0.0167908
0.0170318
0.017279
0.0175329
0.0177939
0.0180622
0.0183377
0.0186201
0.0189084
0.0192011
0.0194963
0.019791
0.0200814
0.020363
0.0206296
0.020874
0.0210869
0.0212576
0.0213737
0.0214213
0.021385
0.0212482
0.0209944
0.0206094
0.0200835
0.0194143
0.0186073
0.0176824
0.016672
0.0156246
0.0146084
0.0137017
0.0129818
0.0125109
0.0123543
0.012565
0.0130802
0.0139757
0.0048799
0.00536602
0.00570928
0.00598497
0.00624352
0.0065099
0.0067931
0.00709608
0.00741834
0.00775753
0.00811044
0.00847357
0.00884359
0.00921742
0.0095924
0.00996622
0.010337
0.0107032
0.0110636
0.0114173
0.0117635
0.0121019
0.012432
0.0127538
0.0130672
0.0133723
0.0136693
0.0139585
0.0142402
0.0145148
0.0147829
0.0150449
0.0153016
0.0155536
0.0158017
0.0160467
0.0162894
0.016531
0.0167722
0.0170143
0.0172584
0.0175074
0.0177621
0.0180233
0.018292
0.018569
0.0188551
0.0191511
0.0194572
0.0197736
0.0201001
0.0204358
0.0207794
0.021129
0.0214818
0.021834
0.022181
0.0225169
0.0228345
0.0231252
0.0233792
0.0235854
0.0237317
0.0238052
0.0237928
0.0236825
0.0234648
0.0231349
0.0226946
0.0221533
0.0215226
0.0208277
0.0201073
0.0194092
0.0188465
0.0184947
0.0184255
0.0186514
0.019182
0.0200018
0.00547459
0.00584355
0.00613589
0.00638863
0.00663282
0.00688752
0.00716098
0.00745631
0.00777322
0.0081095
0.00846202
0.00882732
0.00920198
0.00958284
0.00996706
0.0103522
0.0107362
0.0111172
0.0114939
0.0118652
0.0122302
0.0125882
0.0129387
0.0132814
0.0136162
0.013943
0.0142619
0.014573
0.0148766
0.015173
0.0154627
0.0157461
0.0160238
0.0162965
0.016565
0.01683
0.0170925
0.0173536
0.0176142
0.0178754
0.0181385
0.018406
0.0186795
0.0189604
0.0192496
0.0195484
0.019858
0.0201793
0.0205132
0.0208603
0.0212208
0.0215945
0.0219807
0.0223782
0.022785
0.0231983
0.0236144
0.0240287
0.0244353
0.0248274
0.0251971
0.0255358
0.0258339
0.0260816
0.026269
0.0263874
0.0264297
0.026393
0.0262794
0.0260924
0.0258404
0.0255394
0.0252115
0.0248833
0.0245942
0.0243802
0.0242818
0.0243021
0.02451
0.0249015
0.00603362
0.00633024
0.0065875
0.00682367
0.00705525
0.00729827
0.00756039
0.00784512
0.0081527
0.0084814
0.00882845
0.00919059
0.00956453
0.00994711
0.0103354
0.010727
0.0111195
0.011511
0.0119001
0.0122853
0.0126656
0.0130401
0.0134083
0.0137696
0.0141236
0.0144702
0.0148094
0.0151411
0.0154655
0.0157827
0.0160933
0.0163974
0.0166957
0.0169888
0.0172774
0.0175623
0.0178445
0.0181249
0.0184046
0.0186849
0.018967
0.0192524
0.019544
0.0198433
0.0201515
0.0204701
0.0208005
0.0211441
0.0215019
0.021875
0.0222641
0.0226694
0.0230907
0.0235274
0.0239781
0.0244406
0.0249121
0.0253887
0.0258657
0.0263373
0.0267969
0.0272372
0.0276503
0.0280279
0.0283618
0.0286444
0.0288696
0.0290337
0.0291343
0.0291707
0.029146
0.029066
0.0289379
0.0287695
0.0285848
0.0284017
0.0282428
0.0281176
0.0280849
0.0281521
0.00659026
0.00684063
0.00707245
0.00729468
0.0075168
0.00774887
0.007999
0.00827104
0.00856611
0.00888328
0.00922038
0.0095746
0.00994291
0.0103223
0.0107099
0.0111031
0.0114996
0.0118974
0.0122947
0.01269
0.0130822
0.0134701
0.0138529
0.01423
0.0146009
0.0149652
0.0153227
0.0156733
0.0160169
0.0163538
0.016684
0.017008
0.0173261
0.0176388
0.017947
0.0182512
0.0185524
0.0188516
0.01915
0.0194486
0.0197489
0.0200521
0.0203608
0.0206771
0.0210025
0.0213386
0.021687
0.0220494
0.022427
0.0228212
0.0232329
0.023663
0.0241115
0.0245782
0.0250623
0.0255621
0.0260753
0.0265985
0.0271277
0.0276578
0.028183
0.0286966
0.0291914
0.0296598
0.0300939
0.0304864
0.0308306
0.0311206
0.031351
0.031518
0.0316193
0.0316532
0.0316175
0.0315155
0.0313637
0.0311808
0.0309787
0.0307681
0.0305648
0.0303948
0.00717278
0.00738983
0.00760038
0.0078094
0.00802288
0.00824482
0.00848287
0.00874111
0.00902158
0.00932436
0.0096481
0.00999057
0.0103492
0.0107211
0.0111036
0.0114943
0.0118906
0.0122905
0.0126922
0.013094
0.0134944
0.0138924
0.0142869
0.014677
0.0150621
0.0154416
0.0158152
0.0161827
0.0165438
0.0168985
0.017247
0.0175895
0.0179262
0.0182576
0.0185843
0.018907
0.0192265
0.0195438
0.01986
0.0201762
0.0204937
0.020814
0.0211386
0.0214706
0.0218114
0.0221628
0.0225265
0.0229042
0.0232975
0.023708
0.0241368
0.024585