/*--------------------------------*- C++ -*----------------------------------*\
| =========                 |                                                 |
| \\      /  F ield         | OpenFOAM: The Open Source CFD Toolbox           |
|  \\    /   O peration     | Version:  v2012                                 |
|   \\  /    A nd           | Website:  www.openfoam.com                      |
|    \\/     M anipulation  |                                                 |
\*---------------------------------------------------------------------------*/
FoamFile
{
    version     2.0;
    format      ascii;
    class       volScalarField;
    location    "597";
    object      nut;
}
// * * * * * * * * * * * * * * * * * * * * * * * * * * * * * * * * * * * * * //

dimensions      [0 2 -1 0 0 0 0];


internalField   nonuniform List<scalar> 
6598
(
0.00290956
0.0102463
0.0122448
0.0125812
0.012524
0.012524
0.0125812
0.0122448
0.0102463
0.00290956
0.00218978
0.00841765
0.0112413
0.0120165
0.0121149
0.0121149
0.0120165
0.0112413
0.00841765
0.00218978
0.0017547
0.00724951
0.010331
0.0114357
0.0117034
0.0117034
0.0114357
0.010331
0.00724951
0.0017547
0.00146964
0.00642691
0.00954607
0.0108676
0.0112792
0.0112792
0.0108677
0.00954608
0.00642692
0.00146964
0.00127039
0.0058095
0.00887661
0.0103285
0.010848
0.010848
0.0103285
0.00887663
0.00580952
0.0012704
0.00112375
0.00532426
0.00830332
0.00982487
0.0104188
0.0104188
0.0098249
0.00830335
0.00532429
0.00112375
0.00101127
0.00492937
0.00780752
0.00935816
0.00999932
0.00999933
0.0093582
0.00780757
0.00492942
0.00101127
0.000922083
0.00459918
0.00737383
0.00892698
0.00959505
0.00959507
0.00892704
0.00737391
0.00459925
0.000922087
0.000849436
0.00431711
0.00699022
0.00852884
0.00920925
0.00920928
0.00852893
0.00699034
0.00431722
0.000849442
0.000788948
0.004072
0.00664748
0.00816091
0.00884354
0.00884359
0.00816104
0.00664766
0.00407217
0.000788957
0.000737663
0.00385604
0.00633857
0.00782038
0.0084984
0.00849848
0.00782058
0.00633885
0.0038563
0.000737676
0.000693518
0.00366363
0.00605806
0.00750463
0.00817356
0.00817368
0.00750493
0.00605847
0.00366401
0.000693536
0.000655034
0.00349059
0.00580171
0.00721127
0.00786829
0.00786847
0.00721172
0.00580232
0.00349115
0.00065506
0.00062112
0.00333376
0.00556616
0.00693817
0.00758158
0.00758185
0.00693882
0.00556707
0.00333459
0.000621158
0.000590959
0.00319068
0.00534873
0.00668339
0.0073123
0.00731269
0.00668438
0.00535007
0.0031919
0.000591012
0.00056392
0.00305941
0.00514717
0.00644524
0.00705928
0.00705983
0.00644673
0.00514915
0.00306118
0.000563996
0.000539511
0.00293834
0.00495966
0.00622218
0.00682133
0.00682211
0.00622434
0.0049626
0.0029409
0.000539619
0.000517341
0.00282615
0.00478459
0.00601281
0.00659734
0.00659844
0.00601591
0.00478894
0.00282976
0.000517492
0.000497095
0.00272174
0.00462064
0.00581592
0.00638624
0.0063878
0.00582031
0.00462685
0.0027269
0.000497307
0.00047852
0.00262422
0.00446672
0.00563053
0.00618725
0.00618946
0.00563679
0.00447556
0.00263024
0.000478805
0.00046183
0.00253474
0.00432473
0.00545902
0.006003
0.00600618
0.00546839
0.00434079
0.00256746
0.000527457
0.000446353
0.00245034
0.00419054
0.00529684
0.0058289
0.00583351
0.00531112
0.00421889
0.00251831
0.00059284
0.000431942
0.00237027
0.00406293
0.00514257
0.00566348
0.00567008
0.00516384
0.00410857
0.00248493
0.000674796
0.000418477
0.00229402
0.00394121
0.00499545
0.00550602
0.00551515
0.00502555
0.00400702
0.00247944
0.00077888
0.000405853
0.00222113
0.00382471
0.0048548
0.00535579
0.00536768
0.00489411
0.00391818
0.00250023
0.000911436
0.000393978
0.00215118
0.00371285
0.00471995
0.00521214
0.0052273
0.0047685
0.00384534
0.002536
0.001073
0.000382769
0.00208372
0.00360495
0.00459015
0.00507439
0.00509381
0.00465327
0.00378216
0.00257627
0.00126025
0.000371813
0.00201655
0.00349769
0.00446161
0.00493876
0.00496394
0.00454563
0.00372723
0.00262035
0.00147324
0.000361425
0.0019513
0.0033935
0.00433716
0.00480826
0.00484078
0.00444749
0.00368181
0.0026698
0.00169592
0.000351545
0.00188775
0.00329215
0.00421668
0.00468294
0.00472442
0.00435833
0.00364543
0.00272617
0.00191004
0.000342116
0.00182561
0.00319314
0.00409966
0.00456235
0.00461442
0.00427737
0.00361759
0.00278941
0.00211261
0.000333087
0.0017645
0.00309599
0.00398556
0.00444601
0.00451031
0.00420394
0.00359772
0.00285777
0.00230107
0.000324408
0.00170409
0.00300016
0.00387384
0.00433341
0.00441155
0.00413734
0.00358496
0.00292842
0.00247348
0.000316034
0.00164405
0.00290513
0.0037639
0.00422396
0.00431755
0.00407684
0.00357821
0.00299962
0.00262878
0.00030792
0.00158405
0.00281032
0.00365512
0.00411706
0.00422767
0.00402164
0.00357638
0.00306956
0.00276661
0.000300024
0.0015238
0.00271517
0.00354682
0.00401199
0.00414116
0.00397085
0.00357823
0.0031366
0.00288714
0.000292304
0.00146303
0.0026191
0.00343828
0.003908
0.00405719
0.00392346
0.00358248
0.00319942
0.00299102
0.000284719
0.00140153
0.00252158
0.00332875
0.00380424
0.00397482
0.00387838
0.00358779
0.00325705
0.00307934
0.000277228
0.00133915
0.0024221
0.00321748
0.00369979
0.00389301
0.00383439
0.00359285
0.0033089
0.00315359
0.000269792
0.00127585
0.00232023
0.00310369
0.00359365
0.00381059
0.00379017
0.00359637
0.00335471
0.00321563
0.00026237
0.00121161
0.00221563
0.0029866
0.00348476
0.00372625
0.00374427
0.00359706
0.00339444
0.00326762
0.000254923
0.00114652
0.00210807
0.00286547
0.00337193
0.00363854
0.00369511
0.00359358
0.00342808
0.00331178
0.000247409
0.00108076
0.0019974
0.00273959
0.00325392
0.0035458
0.00364089
0.0035844
0.00345545
0.00335018
0.000239786
0.00101457
0.00188365
0.00260828
0.00312937
0.00344619
0.0035795
0.00356767
0.00347584
0.00338421
0.000232009
0.000948201
0.00176691
0.00247093
0.00299686
0.00333758
0.00350848
0.00354103
0.00348774
0.00341412
0.000224029
0.000881927
0.0016474
0.00232704
0.00285487
0.00321762
0.0034249
0.00350141
0.00348852
0.00343842
0.00021579
0.000815988
0.0015254
0.00217617
0.00270191
0.00308373
0.00332539
0.00344501
0.00347423
0.00345356
0.000207226
0.000750581
0.00140123
0.00201804
0.00253655
0.00293323
0.00320617
0.00336726
0.00343963
0.00345377
0.000198252
0.000685848
0.00127526
0.00185258
0.00235763
0.00276357
0.00306337
0.00326307
0.00337844
0.00343139
0.000188756
0.000621874
0.00114792
0.00168005
0.00216446
0.00257269
0.00289344
0.00312739
0.00328387
0.0033776
0.000178579
0.000558678
0.00101978
0.00150123
0.0019573
0.0023597
0.0026939
0.00295598
0.00314965
0.00328351
0.000167476
0.00049621
0.000891877
0.00131797
0.00173806
0.00212574
0.00246454
0.00274675
0.00297133
0.00314175
0.00014689
0.000434639
0.000765921
0.00113389
0.00151144
0.00187544
0.0022089
0.00250139
0.0027481
0.00294779
9.69209e-05
0.000380449
0.000648216
0.000956172
0.00128595
0.00161793
0.00193557
0.00222675
0.00248294
0.00269964
0.000109322
0.000336051
0.000553329
0.000801011
0.00107765
0.00136886
0.00165912
0.00193409
0.00218491
0.00240672
9.97353e-05
0.000309988
0.000491956
0.000687526
0.000909823
0.00115191
0.00140021
0.00164435
0.00187609
0.00208936
7.38892e-05
0.000304053
0.000459076
0.000621578
0.000797966
0.000987747
0.00118747
0.00139058
0.00159012
0.00177983
6.52994e-05
0.00028746
0.000450864
0.000590212
0.000705532
0.000819763
0.000945251
0.00108052
0.0012198
0.00135681
6.53419e-05
0.000213832
0.000425414
0.000548875
0.000664081
0.000691361
0.000741505
0.000821992
0.000922143
0.00102482
6.92511e-05
0.000115413
0.00014196
0.000173132
0.000201457
0.00022342
0.000238757
0.00025129
0.000261647
0.00027006
0.000130866
0.00015671
0.000155467
0.000155946
0.000155161
0.000151974
0.000144842
0.000137884
0.000131294
0.000124963
0.000118785
0.000112928
0.000107408
0.000102189
9.71786e-05
9.24359e-05
8.80601e-05
8.38614e-05
7.96909e-05
7.54112e-05
7.08614e-05
6.58182e-05
4.56401e-05
4.75292e-05
3.43882e-05
0.000232804
0.000461481
0.00066323
0.000750721
0.000779445
0.000777757
0.000699052
0.000636874
0.00062625
0.000620269
0.00057859
0.000540577
0.000505677
0.000473614
0.000443152
0.000406548
0.000361352
0.000312711
0.000264675
0.000219967
0.000180653
0.000148065
0.000123618
9.45169e-05
4.17212e-05
0.000377672
0.000605681
0.000805241
0.000946066
0.000994896
0.00096914
0.000786008
0.00066708
0.000618247
0.000618641
0.000657778
0.000704899
0.000671956
0.000643158
0.000616102
0.000584147
0.000538431
0.000480407
0.000413458
0.000342842
0.000274954
0.000215845
0.000169672
0.000133399
3.54941e-05
0.000628228
0.000636033
0.000864548
0.00099041
0.00103267
0.00101522
0.000908244
0.000757695
0.0006594
0.000626962
0.000647153
0.000672081
0.000647071
0.00063352
0.00062564
0.000614881
0.000589611
0.000546749
0.000486532
0.000413153
0.000334611
0.000260589
0.000199153
0.000148096
4.49983e-05
0.000961128
0.000836966
0.00100949
0.00105218
0.00104953
0.00100535
0.000939754
0.000867551
0.000758615
0.000677456
0.000632939
0.000579755
0.00055311
0.000551071
0.000563366
0.000575824
0.000573585
0.000549451
0.000502626
0.000436632
0.000359242
0.000281305
0.000212903
0.00015231
4.3694e-05
0.00122106
0.00115716
0.00122851
0.00118221
0.00111683
0.00102672
0.000930775
0.000840717
0.000751848
0.000661263
0.000573657
0.000504118
0.00046696
0.000465351
0.000489806
0.000518797
0.000531752
0.000519527
0.000483247
0.000426306
0.000355594
0.000281239
0.000213094
0.000148786
4.16502e-05
0.0014339
0.00154554
0.00147026
0.0013507
0.0012267
0.00109038
0.000965218
0.000856693
0.000752356
0.000645898
0.000545408
0.000465264
0.000418002
0.000405994
0.000422156
0.000449183
0.00046655
0.000460818
0.000433212
0.00038694
0.000327964
0.000264359
0.000203008
0.000139848
3.95446e-05
0.00164501
0.0017901
0.00171495
0.00154575
0.00136574
0.00118429
0.00102903
0.000903222
0.000783326
0.000660891
0.000546742
0.000455898
0.000396281
0.000367591
0.000365168
0.000377301
0.000387699
0.00038318
0.000362896
0.000328617
0.000284718
0.000236919
0.000189625
0.000123658
4.40451e-05
0.00185007
0.0020146
0.00195647
0.00176182
0.00153094
0.00130571
0.00111977
0.000977937
0.000844192
0.000705386
0.000575999
0.000473062
0.000400247
0.000353086
0.000327375
0.00031753
0.000314833
0.000309102
0.000295028
0.000272753
0.000244932
0.00021497
0.000167579
0.000135889
0.000140846
0.00204737
0.0022236
0.00218874
0.00198826
0.00170881
0.00144305
0.00123255
0.00107762
0.000935665
0.000782831
0.000637216
0.000520823
0.000436611
0.000376723
0.000334435
0.000305909
0.000289073
0.000281353
0.000273116
0.000263585
0.000254494
0.000248463
0.000248141
0.000238174
0.000198786
0.00223533
0.00241684
0.00240172
0.00219584
0.00188841
0.00159062
0.00136029
0.0012008
0.00105957
0.000899797
0.000739602
0.000607806
0.00051192
0.000444844
0.000398345
0.000366788
0.000347324
0.000338864
0.000335078
0.000334365
0.000336813
0.000342647
0.000345631
0.000361728
0.000393958
0.00241155
0.00259328
0.00259397
0.00239032
0.00206923
0.00174513
0.00149954
0.00134292
0.00121447
0.00106059
0.000893753
0.000747127
0.000635208
0.000555633
0.000501809
0.000467232
0.000447121
0.000438014
0.000434435
0.000435662
0.000441943
0.000454664
0.000477415
0.000518152
0.000586238
0.00257423
0.0027516
0.00276505
0.00257325
0.00225058
0.00190375
0.00164542
0.0014964
0.00139298
0.00123475
0.00110407
0.000953792
0.000829621
0.000734409
0.000666535
0.000622088
0.000597221
0.000584077
0.000581496
0.000588365
0.000605692
0.000636137
0.00068549
0.000762506
0.000878403
0.00272126
0.00289112
0.00291521
0.00274091
0.00241869
0.00206456
0.00179454
0.00165295
0.00158259
0.00132905
0.00119949
0.00115908
0.00110449
0.00100605
0.000930242
0.000876051
0.000842687
0.000822512
0.000818254
0.000830586
0.000861679
0.000913259
0.000989207
0.00107642
0.00114328
0.00285111
0.00301187
0.00304608
0.00289348
0.00258145
0.00223124
0.00194696
0.00180617
0.00176879
0.00158337
0.00135214
0.00127163
0.00125398
0.00125839
0.00126716
0.00122074
0.00117814
0.00115388
0.00114976
0.00116689
0.00116768
0.00117091
0.00120897
0.00129366
0.00143138
0.00296304
0.00311379
0.00315781
0.00303035
0.00274026
0.00239573
0.00210777
0.00195402
0.0019369
0.00196478
0.00168907
0.00154431
0.00149092
0.00146695
0.00145319
0.00143796
0.00141814
0.00139566
0.00137617
0.00136948
0.00138844
0.00143454
0.00150979
0.00162358
0.00177171
0.00305702
0.00319696
0.0032502
0.00315029
0.00289576
0.00256126
0.00226941
0.00210207
0.0020807
0.00214634
0.00221225
0.00203525
0.0019367
0.0018845
0.001843
0.00180945
0.0017833
0.00176505
0.00175648
0.00176305
0.0017907
0.00184306
0.00192288
0.00202958
0.00215654
0.00313369
0.00326179
0.0033233
0.00325249
0.00304052
0.0027305
0.00243495
0.00224753
0.00220679
0.00228019
0.00238992
0.00248067
0.00253205
0.00251577
0.00245868
0.00241446
0.00238096
0.00235647
0.00234238
0.00233944
0.00234921
0.00237661
0.00242487
0.00249571
0.00258771
0.00319437
0.00330912
0.00337742
0.0033353
0.00316803
0.00290173
0.00260878
0.0023995
0.00232365
0.00237493
0.0024957
0.0026233
0.00273148
0.00280949
0.00286088
0.00289836
0.00293357
0.00297433
0.00302541
0.00300725
0.00297857
0.00296239
0.00296557
0.00299328
0.00304704
0.00324105
0.00334039
0.00341271
0.00339686
0.00327417
0.00305855
0.00279747
0.00256909
0.00245334
0.00246273
0.00256442
0.00270354
0.00283934
0.00295948
0.00306181
0.00314754
0.00322368
0.0032973
0.00337298
0.00345411
0.00354156
0.0035076
0.00347181
0.00346436
0.00348844
0.00327641
0.00335784
0.00343018
0.00343659
0.00335538
0.00319204
0.00297686
0.0027621
0.0026109
0.00256958
0.00262904
0.00275035
0.00289215
0.00302948
0.00315452
0.00326814
0.00337283
0.00347119
0.00356507
0.00365653
0.00374683
0.00383646
0.00386952
0.00384422
0.00384445
0.00330368
0.00336478
0.00343212
0.0034551
0.00340972
0.00329592
0.00313156
0.00295084
0.00279808
0.00271346
0.00271972
0.00280066
0.0029231
0.00305982
0.00319369
0.00331849
0.00343393
0.00354166
0.00364327
0.00373963
0.00383126
0.00391842
0.00400114
0.00406785
0.00406716
0.00332648
0.0033655
0.00342244
0.00345472
0.00343789
0.00336692
0.00325184
0.00311386
0.00298267
0.00288858
0.00285423
0.00288509
0.0029691
0.00308657
0.0032143
0.00334113
0.00346258
0.00357719
0.00368462
0.00378476
0.0038776
0.00396318
0.00404172
0.00411361
0.00414709
0.0033482
0.00336499
0.00340663
0.00344014
0.00344272
0.00340584
0.00333349
0.00323891
0.00314056
0.00305929
0.00301363
0.00301395
0.00306019
0.00314323
0.00324897
0.00336496
0.0034828
0.00359752
0.00370625
0.00380726
0.00389992
0.00398412
0.00405058
0.0040753
0.0040999
0.00337129
0.00336812
0.00339133
0.0034184
0.00343032
0.00341718
0.0033785
0.00332131
0.00325742
0.00320043
0.00316309
0.00315529
0.00318121
0.00323855
0.00331998
0.00341661
0.00352037
0.00362487
0.00372604
0.00375401
0.00375746
0.00377885
0.0038125
0.0038495
0.00388582
0.0033963
0.00337843
0.00338306
0.00339799
0.00340971
0.00340911
0.00339325
0.00336479
0.00333027
0.0032983
0.00327777
0.0032761
0.00329778
0.00334329
0.00340866
0.0034875
0.00357329
0.00352941
0.00348367
0.00346608
0.00347068
0.00349044
0.00352008
0.00355571
0.00359392
0.00342101
0.00339657
0.00338635
0.00338703
0.0033914
0.00339299
0.00338844
0.00337789
0.00336442
0.00335309
0.00334945
0.00335853
0.00338375
0.00342588
0.00348238
0.00349826
0.0033916
0.00330714
0.0032549
0.00322982
0.0032238
0.00323217
0.00325193
0.00328005
0.00331371
0.00343996
0.00341909
0.00340158
0.00339053
0.00338461
0.00338099
0.00337756
0.0033739
0.00337139
0.00337259
0.00338069
0.00339878
0.00342906
0.00347182
0.00352442
0.00337697
0.00324648
0.00315392
0.00309071
0.00305179
0.00303288
0.00302988
0.0030392
0.00305805
0.00308413
0.00344455
0.00343793
0.00342335
0.00340759
0.00339357
0.0033821
0.0033735
0.00336816
0.003367
0.00337146
0.00338332
0.00340431
0.00343569
0.00347741
0.00352714
0.00334991
0.00318952
0.00307627
0.00299483
0.00293844
0.00290342
0.00288608
0.00288283
0.00289061
0.00290711
0.00342386
0.00344101
0.00344021
0.00342942
0.00341396
0.00339777
0.00338331
0.00337233
0.00336632
0.00336666
0.00337463
0.00339133
0.00341748
0.00345302
0.00349657
0.00347721
0.00326898
0.00311218
0.0030008
0.00292186
0.00286574
0.0028284
0.00280694
0.00279833
0.00280029
0.00336615
0.00341379
0.00343562
0.00343949
0.00343213
0.00341867
0.00340302
0.00338818
0.00337652
0.0033699
0.0033698
0.0033773
0.00339307
0.00341725
0.00344932
0.00348769
0.00352957
0.00333243
0.0031676
0.00304788
0.00296055
0.00289703
0.00285225
0.00282228
0.00280457
0.00326037
0.00334051
0.00339043
0.00341718
0.00342701
0.00342524
0.00341631
0.0034039
0.00339101
0.00338005
0.0033729
0.00337098
0.00337523
0.00338613
0.00340371
0.00342755
0.00345664
0.00348915
0.00352347
0.00337921
0.00324213
0.00313899
0.00306234
0.00300544
0.00296449
0.00309644
0.00320779
0.00328779
0.00334185
0.00337518
0.00339259
0.00339834
0.00339617
0.00338929
0.00338037
0.00337162
0.00336476
0.00336109
0.00336147
0.00336641
0.00337607
0.00339033
0.0034087
0.00343049
0.00345451
0.00347996
0.00350613
0.00346642
0.00337369
0.00330197
0.00287111
0.00300878
0.00311655
0.00319809
0.00325728
0.00329795
0.00332378
0.00333813
0.00334403
0.00334413
0.00334071
0.00333564
0.00333044
0.00332629
0.00332404
0.00332425
0.00332725
0.00333318
0.00334195
0.00335332
0.00336698
0.00338252
0.00339933
0.00341685
0.00343468
0.00259067
0.00274632
0.00287561
0.00298051
0.00306346
0.00312717
0.00317445
0.00320803
0.00323052
0.00324431
0.00325152
0.00325403
0.00325341
0.00325095
0.00324771
0.00324449
0.00324191
0.00324039
0.00324021
0.00324154
0.00324442
0.00324881
0.00325458
0.00326156
0.00326954
0.00227325
0.00243537
0.00257594
0.00269552
0.00279531
0.0028769
0.00294213
0.00299302
0.00303159
0.00305978
0.00307944
0.00309221
0.00309959
0.00310284
0.00310306
0.00310116
0.00309787
0.00309378
0.00308935
0.00308495
0.00308084
0.00307718
0.00307411
0.00307169
0.00306998
0.00193843
0.00208409
0.0022342
0.00235989
0.00246425
0.00255301
0.00262716
0.00268794
0.0027367
0.00277483
0.00280374
0.00282475
0.0028391
0.00284792
0.0028522
0.00285282
0.00285054
0.002846
0.00283972
0.00283216
0.00282368
0.00281459
0.00280512
0.00279548
0.0027859
0.00148684
0.00161844
0.00175514
0.00190059
0.00205814
0.00214645
0.00221416
0.00227042
0.00231614
0.0023523
0.00237987
0.00239984
0.00241316
0.00242072
0.00242334
0.0024218
0.00241675
0.00240882
0.00239851
0.00238631
0.00237259
0.0023577
0.00234194
0.00232556
0.00230888
0.00112648
0.00123619
0.00135237
0.00142472
0.00147296
0.00151325
0.0015459
0.00157139
0.00159027
0.00160315
0.00161062
0.0016133
0.00161179
0.00160665
0.00159844
0.00158765
0.00157473
0.0015601
0.00154412
0.00152711
0.00150934
0.00149106
0.00147246
0.00145373
0.00143507
0.000276739
0.000282471
0.000287447
0.000291606
0.000295
0.000297703
0.000299769
0.000301253
0.000302202
0.000302667
0.000302695
0.000302331
0.000301622
0.000300608
0.000299331
0.000297828
0.000296134
0.00029428
0.000292296
0.000290207
0.000288036
0.000285805
0.00028353
0.000281226
0.000278907
3.90047e-05
5.45271e-05
6.51487e-05
0.000139042
0.000127148
0.000245113
0.000239912
0.000341922
0.000438159
0.00045437
0.000553283
0.000730843
0.000703517
0.000868551
0.00109637
0.00102994
0.00117787
0.00140123
0.00129581
0.00149278
0.00171471
0.00160882
0.00179613
0.00200036
0.00193421
0.0021011
0.00228786
0.00229383
0.00244019
0.00260781
0.00269583
0.00281805
0.00296217
0.00312382
0.00321913
0.00333639
0.00353905
0.00360986
0.00370031
0.00387435
0.00392505
0.00399114
0.00408164
0.00411619
0.00416318
0.00416402
0.00418977
0.00422458
0.00412373
0.00414961
0.00418048
0.00391793
0.00394924
0.00398403
0.00363022
0.00366567
0.00370385
0.00334769
0.00338182
0.00341882
0.00311231
0.0031421
0.00317533
0.00292732
0.00295082
0.00297836
0.00280823
0.00282167
0.00284005
0.00279539
0.00279412
0.00279886
0.00293545
0.00291645
0.00290417
0.00324952
0.00321131
0.00318186
0.00345077
0.00346685
0.00348306
0.00327726
0.00328557
0.00329442
0.00306883
0.00306827
0.00306815
0.00277724
0.00276887
0.00276057
0.00229372
0.00227861
0.0022634
0.00141858
0.00140234
0.00138626
0.000276865
0.000274835
0.000272817
2.54356e-05
4.41151e-05
5.41919e-05
5.59488e-05
6.70961e-05
7.18319e-05
7.59177e-05
7.95278e-05
8.27714e-05
8.57208e-05
8.84271e-05
9.09288e-05
9.32558e-05
9.54331e-05
9.74815e-05
9.94191e-05
0.000101261
0.000103023
0.000104716
0.000106352
0.000107941
0.000109493
0.000111018
0.000112524
0.000114019
0.000115512
0.000117012
0.000118528
0.000120069
0.000121648
0.000123276
0.000124968
0.000126743
0.000128621
0.000130573
0.000132573
0.00013462
0.000136719
0.000138885
0.00014111
0.000143388
0.000145734
0.000148151
0.000150645
0.000153217
0.000155872
0.000158613
0.000161441
0.000164357
0.00016736
0.000170447
0.000173609
0.000176833
0.000180094
0.000183351
0.000186543
0.000189571
0.000192278
0.000194434
0.000195827
0.000196577
0.000196776
0.000196505
0.000195462
0.000193102
0.000189635
0.00018481
0.000178827
0.000171981
0.000164404
0.000156249
0.000147504
0.000139213
0.000131132
0.000122947
0.000114406
0.000105186
8.70943e-05
8.15863e-05
5.48824e-05
4.52074e-05
0.000128288
0.000148734
0.000168955
0.000194256
0.000223178
0.000254002
0.000286004
0.000318504
0.000350941
0.000382856
0.0004139
0.000443831
0.000472501
0.000499835
0.000525822
0.000550491
0.000573905
0.000596142
0.000617292
0.000637451
0.00065671
0.000675159
0.000692879
0.000709943
0.000726412
0.00074234
0.000757765
0.00077271
0.00078718
0.000801165
0.000814626
0.000827411
0.000839498
0.000851914
0.00086494
0.000878329
0.000892092
0.00090623
0.000920667
0.000935424
0.000950575
0.000966142
0.000982134
0.000998554
0.0010154
0.00103266
0.0010503
0.00106828
0.00108654
0.00110499
0.00112347
0.00114178
0.00115965
0.00117665
0.00119218
0.00120542
0.00121519
0.00121998
0.00121778
0.00120748
0.00119134
0.00116902
0.00113935
0.00110064
0.00105687
0.00100654
0.00095311
0.000897791
0.000839659
0.00077972
0.000716147
0.000625157
0.000522982
0.000422533
0.000332492
0.000258271
0.00020286
0.000161475
6.32127e-05
5.58652e-05
0.000190532
0.00024277
0.000296544
0.000355283
0.000422119
0.000493939
0.000568365
0.000643396
0.000717471
0.000789449
0.000858565
0.000924365
0.000986629
0.00104531
0.00110049
0.0011523
0.00120095
0.00124666
0.00128963
0.0013301
0.00136828
0.00140436
0.00143853
0.00147094
0.00150174
0.00153106
0.00155901
0.00158569
0.00161117
0.00163553
0.00165882
0.00168105
0.00170229
0.00172256
0.00174326
0.00176435
0.00178549
0.00180658
0.00182755
0.00184836
0.00186899
0.00188937
0.00190941
0.00192902
0.00194805
0.00196633
0.00198365
0.00199977
0.00201436
0.00202707
0.00203744
0.00204494
0.00204893
0.00204863
0.00204311
0.00203125
0.00201176
0.00198321
0.0018901
0.00169305
0.00152866
0.00139853
0.00129948
0.00122972
0.00118741
0.00116525
0.00117763
0.00121913
0.00115849
0.001082
0.0010029
0.00090217
0.000774638
0.000632114
0.000490695
0.000366705
0.000271288
0.000200001
6.51045e-05
5.93483e-05
0.000238637
0.000335413
0.000449114
0.000548637
0.000658583
0.00077436
0.000892173
0.00100896
0.0011225
0.00123135
0.00133465
0.00143201
0.00152335
0.0016088
0.0016886
0.00176307
0.00183255
0.0018974
0.00195796
0.00201456
0.00206752
0.00211711
0.00216359
0.00220721
0.00224817
0.00228666
0.00232286
0.0023569
0.00238893
0.00241905
0.00244735
0.00247391
0.00249879
0.00252204
0.00254365
0.00256526
0.00258623
0.00260627
0.00262519
0.00264285
0.00265912
0.00267381
0.00268674
0.00269766
0.0027063
0.00271235
0.00271543
0.00271511
0.00271092
0.0027023
0.00268865
0.00266929
0.00264351
0.00261055
0.00256961
0.00251981
0.00246032
0.00239037
0.00230922
0.00209133
0.00184641
0.00164297
0.00147359
0.00133959
0.00123917
0.00117002
0.00113405
0.00113169
0.00115559
0.00109486
0.00102114
0.000938666
0.000824895
0.000687388
0.000541453
0.000405836
0.000295909
0.00020835
6.23798e-05
7.09992e-05
0.000286882
0.000416603
0.000578873
0.000758465
0.000920256
0.00107685
0.00123317
0.00138573
0.0015322
0.00167123
0.00180217
0.00192487
0.00203945
0.00214625
0.00224568
0.00233818
0.00242423
0.00250427
0.00257873
0.00264801
0.00271248
0.00277249
0.00282833
0.0028803
0.00292862
0.00297354
0.00301524
0.0030539
0.00308966
0.00312266
0.003153
0.00318075
0.00320598
0.00322873
0.003249
0.00326683
0.00328366
0.00329876
0.00331177
0.00332243
0.00333053
0.0033358
0.00333799
0.00333677
0.00333179
0.00332264
0.00330886
0.00328994
0.0032653
0.00323431
0.00319629
0.00315051
0.00309622
0.00303272
0.00295939
0.0028756
0.00278075
0.00267444
0.00255646
0.00242691
0.00228589
0.00212927
0.00185974
0.0016374
0.00145286
0.00129733
0.00117682
0.00108505
0.00102746
0.00100321
0.000913393
0.000831316
0.000741747
0.000628678
0.000506422
0.000388765
0.000287037
0.000197075
5.76384e-05
5.2051e-05
0.000330275
0.000488902
0.0006923
0.000929801
0.00119726
0.00138909
0.00157699
0.00175818
0.00193057
0.00209316
0.00224561
0.00238804
0.00252081
0.00264442
0.0027594
0.00286629
0.00296563
0.00305792
0.00314365
0.00322324
0.00329709
0.00336557
0.00342902
0.00348771
0.00354193
0.00359191
0.00363785
0.00367994
0.00371832
0.00375314
0.0037845
0.00381248
0.00383714
0.0038585
0.00387658
0.00389135
0.00390338
0.00391326
0.00392038
0.00392439
0.00392499
0.0039219
0.00391483
0.00390341
0.00388726
0.00386594
0.00383894
0.00380571
0.00376561
0.00371798
0.00366208
0.00359712
0.00352229
0.00343677
0.00333993
0.00323119
0.00311002
0.00297611
0.00282931
0.00266984
0.00249871
0.00231777
0.0021298
0.0019384
0.00174891
0.00156602
0.00139317
0.00123244
0.001047
0.000912751
0.000819978
0.000705029
0.000606604
0.000515166
0.000425414
0.000338165
0.000255036
0.000168085
5.34029e-05
8.87914e-05
0.00027136
0.00054326
0.000800765
0.00111802
0.0014875
0.0017048
0.00191695
0.00211984
0.00231173
0.00249201
0.00266071
0.00281818
0.00296498
0.00310171
0.00322899
0.00334741
0.00345755
0.00355993
0.00365503
0.00374331
0.00382516
0.00390096
0.00397104
0.0040357
0.00409521
0.00414981
0.00419971
0.0042451
0.00428613
0.00432295
0.00435565
0.00438433
0.00440906
0.00442987
0.0044468
0.00445982
0.00446893
0.00447519
0.00447835
0.00447799
0.00447376
0.00446539
0.00445255
0.0044349
0.00441206
0.00438357
0.00434893
0.00430756
0.0042588
0.00420195
0.00413622
0.00406077
0.00397474
0.00387727
0.00376725
0.00364412
0.00350695
0.00335545
0.00318974
0.00300955
0.00281557
0.00260945
0.00239381
0.00217248
0.00195079
0.00173509
0.00152856
0.00133513
0.00115786
0.0009949
0.000843253
0.000700526
0.000566913
0.000451793
0.000369338
0.000296204
0.000226405
0.000148643
5.12997e-05
0.000185269
0.000389659
0.000679765
0.00098924
0.0014042
0.00179219
0.00202913
0.00225866
0.00247694
0.00268265
0.00287559
0.00305608
0.0032247
0.00338212
0.00352901
0.00366602
0.00379377
0.00391282
0.00402368
0.00412684
0.00422272
0.00431172
0.0043942
0.00447049
0.00454087
0.00460562
0.00466497
0.00471912
0.00476827
0.00481257
0.00485216
0.00488716
0.00491767
0.00494377
0.00496551
0.00498293
0.00499606
0.0050049
0.00500944
0.00501086
0.00500864
0.00500241
0.00499187
0.00497673
0.00495668
0.00493134
0.0049003
0.00486306
0.00481906
0.00476765
0.00470811
0.00463962
0.0045613
0.00447218
0.00437125
0.00425749
0.0041299
0.00398748
0.00382942
0.00365517
0.00346443
0.00325751
0.00303543
0.00280012
0.00255456
0.00230389
0.00205336
0.00180907
0.0015743
0.00135711
0.00116087
0.000986708
0.000833665
0.000690466
0.000513166
0.000375529
0.00031608
0.000257719
0.000231056
0.000172229
0.000379345
0.000657705
0.000926741
0.00133454
0.00184683
0.0021049
0.00235582
0.00259633
0.00282414
0.00303852
0.00323965
0.00342806
0.00360448
0.00376961
0.00392416
0.00406875
0.00420399
0.0043304
0.00444847
0.00455864
0.00466133
0.00475691
0.0048457
0.00492802
0.00500415
0.00507433
0.0051388
0.00519776
0.00525139
0.00529984
0.00534327
0.00538179
0.00541551
0.00544451
0.00546887
0.00548863
0.00550382
0.00551446
0.00552052
0.00552246
0.00552089
0.00551537
0.00550562
0.00549136
0.00547234
0.00544823
0.00541866
0.0053832
0.00534133
0.00529244
0.00523584
0.00517074
0.00509624
0.00501136
0.00491503
0.00480612
0.00468346
0.00454587
0.00439222
0.00422152
0.00403307
0.00382659
0.00360234
0.00336141
0.00310589
0.00283909
0.0025651
0.00228835
0.00201343
0.00174716
0.00149827
0.00127494
0.00108218
0.000921426
0.000790674
0.000685978
0.00060555
0.000552967
0.000527121
0.000514205
0.000654132
0.00101464
0.00134759
0.0018591
0.00215904
0.00242758
0.00268508
0.00293013
0.00316171
0.00337971
0.00358459
0.00377705
0.00395784
0.00412768
0.00428722
0.00443706
0.00457774
0.00470974
0.00483349
0.00494941
0.00505785
0.00515916
0.00525362
0.00534153
0.00542315
0.00549869
0.00556838
0.00563239
0.00569092
0.0057441
0.00579208
0.00583497
0.00587289
0.00590593
0.00593416
0.00595764
0.00597641
0.0059905
0.00599991
0.0060046
0.00600563
0.0060028
0.00599591
0.00598474
0.00596908
0.0059487
0.0059233
0.00589251
0.00585591
0.00581297
0.00576308
0.00570551
0.00563945
0.00556394
0.00547797
0.00538039
0.00527
0.00514553
0.00500571
0.00484933
0.00467534
0.00448297
0.00427188
0.00404232
0.00379533
0.00353301
0.00325836
0.00297482
0.00268581
0.00239544
0.00211286
0.00184708
0.00160626
0.0013974
0.00122598
0.00109455
0.00100451
0.000955571
0.000935466
0.000948049
0.00101297
0.00138697
0.00180852
0.00220231
0.0024895
0.00276039
0.00301767
0.00326141
0.00349161
0.00370868
0.00391329
0.0041062
0.00428816
0.00445981
0.00462177
0.00477454
0.00491861
0.00505439
0.00518225
0.00530254
0.00541557
0.00552163
0.00562098
0.00571387
0.00580052
0.00588114
0.0059559
0.00602499
0.00608855
0.00614673
0.00619966
0.00624744
0.00629018
0.00632797
0.00636088
0.00638899
0.00641235
0.006431
0.00644496
0.00645427
0.00645895
0.00646001
0.00645722
0.00645042
0.00643947
0.00642421
0.00640443
0.00637989
0.00635024
0.0063151
0.00627396
0.00622622
0.00617119
0.00610806
0.0060359
0.00595369
0.00586031
0.00575456
0.0056352
0.00550098
0.00535076
0.00518354
0.00499862
0.00479569
0.00457505
0.00433782
0.00408602
0.00382247
0.00354958
0.00327325
0.00299942
0.00273497
0.00248693
0.00226205
0.00206958
0.00191641
0.00180691
0.00174134
0.00172229
0.00176188
0.00137494
0.00173816
0.00218308
0.00255084
0.00283508
0.00310128
0.00335255
0.00359003
0.00381446
0.00402661
0.00422732
0.00441734
0.00459739
0.00476805
0.00492985
0.00508322
0.00522856
0.00536621
0.00549647
0.00561962
0.00573592
0.00584559
0.00594886
0.00604592
0.00613694
0.0062221
0.00630156
0.00637544
0.00644389
0.00650703
0.00656495
0.00661777
0.00666556
0.00670842
0.00674642
0.00677961
0.00680806
0.0068318