/*--------------------------------*- C++ -*----------------------------------*\
| =========                 |                                                 |
| \\      /  F ield         | OpenFOAM: The Open Source CFD Toolbox           |
|  \\    /   O peration     | Version:  v2012                                 |
|   \\  /    A nd           | Website:  www.openfoam.com                      |
|    \\/     M anipulation  |                                                 |
\*---------------------------------------------------------------------------*/
FoamFile
{
    version     2.0;
    format      ascii;
    class       volScalarField;
    location    "597";
    object      omega;
}
// * * * * * * * * * * * * * * * * * * * * * * * * * * * * * * * * * * * * * //

dimensions      [0 0 -1 0 0 0 0];


internalField   nonuniform List<scalar> 
6598
(
576.951
206.151
178.967
175.81
177.318
177.318
175.81
178.967
206.151
576.951
434.221
179.514
148.026
142.526
142.634
142.634
142.526
148.026
179.514
434.221
347.947
154.881
125.715
119.34
118.501
118.501
119.34
125.715
154.881
347.947
291.421
134.652
108.833
102.351
100.994
100.994
102.351
108.832
134.651
291.421
251.912
118.469
95.6676
89.4147
87.8174
87.8174
89.4147
95.6676
118.469
251.913
222.834
105.508
85.1706
79.2656
77.584
77.584
79.2656
85.1705
105.508
222.834
200.53
95.0187
76.6472
71.1117
69.428
69.428
71.1117
76.6471
95.0183
200.53
182.844
86.4148
69.6174
64.4319
62.7868
62.7868
64.4318
69.6172
86.4143
182.845
168.439
79.2597
63.7389
58.8699
57.2815
57.2815
58.8697
63.7386
79.259
168.44
156.444
73.2306
58.7624
54.1739
52.6484
52.6483
54.1737
58.7619
73.2295
156.446
146.275
68.0884
54.5028
50.1614
48.6989
48.6988
50.161
54.502
68.0868
146.277
137.521
63.654
50.8205
46.6968
45.2944
45.2943
46.6963
50.8193
63.6516
137.524
129.89
59.792
47.6088
43.6775
42.3313
42.3311
43.6767
47.6071
59.7883
129.895
123.165
56.3983
44.7849
41.0247
39.7303
39.7299
41.0235
44.7822
56.3927
123.172
117.184
53.3924
42.2838
38.6767
37.4298
37.4292
38.6748
42.2798
53.3842
117.195
111.822
50.7111
40.054
36.5847
35.3813
35.3805
36.5818
40.0482
50.699
111.837
106.982
48.3043
38.0543
34.7097
33.5463
33.5451
34.7056
38.0456
48.2868
107.004
102.586
46.1318
36.2513
33.0203
31.8934
31.8917
33.0145
36.2385
46.1074
102.616
98.5714
44.1614
34.6181
31.4907
30.3974
30.395
31.4826
34.6
44.1269
98.6133
94.8879
42.3674
33.1332
30.1009
29.0383
29.035
30.0893
33.1071
42.3281
94.9445
91.5784
40.7686
31.8102
28.8625
27.8271
27.8221
28.8433
31.7475
40.3432
80.5715
88.5094
39.3005
30.5968
27.7269
26.7163
26.7085
27.694
30.4678
38.3827
68.8609
85.6519
37.9477
29.4793
26.6809
25.6924
25.6802
26.6265
29.2555
36.4284
59.5762
82.9819
36.6981
28.4474
25.7146
24.7457
24.7274
25.6309
28.1074
34.3348
52.2087
80.4785
35.5415
27.4923
24.8195
23.8678
23.8424
24.7026
26.9865
32.2002
46.3815
78.1237
34.4689
26.6065
23.9883
23.0514
23.0172
23.8373
25.881
30.2301
41.8185
75.901
33.4725
25.7828
23.2142
22.2894
22.2438
23.0138
24.845
28.5255
38.2381
73.7286
32.5162
24.9924
22.4702
21.5554
21.4951
22.2064
23.85
27.0501
35.3334
71.6687
31.6281
24.2571
21.776
20.8682
20.7906
21.4408
22.927
25.8007
32.9622
69.7095
30.804
23.5733
21.1283
20.2247
20.1276
20.7176
22.0741
24.7121
30.8437
67.8398
30.0392
22.9375
20.5235
19.6213
19.5029
20.0351
21.2848
23.7378
28.9517
66.0493
29.3308
22.3469
19.9586
19.0548
18.9137
19.3912
20.5507
22.8393
27.2544
64.3284
28.6766
21.7991
19.4313
18.523
18.3578
18.7832
19.8623
21.9852
25.7208
62.6678
28.0749
21.2928
18.94
18.024
17.8333
18.2081
19.2101
21.1627
24.3242
61.0589
27.5248
20.8273
18.4834
17.5563
17.3385
17.6632
18.5872
20.3643
23.0412
59.4932
27.0257
20.4024
18.0612
17.1194
16.8724
17.1463
17.9884
19.586
21.8526
57.9623
26.5774
20.0186
17.6735
16.713
16.4344
16.6557
17.4107
18.8268
20.7433
56.4582
26.1798
19.677
17.3212
16.3376
16.0245
16.1907
16.853
18.0878
19.7023
54.9729
25.8327
19.3792
17.0057
15.9943
15.6435
15.7518
16.3163
17.3723
18.7226
53.4983
25.5355
19.1272
16.7293
15.685
15.2929
15.3405
15.8035
16.6854
17.8013
52.0266
25.2875
18.9234
16.4946
15.4123
14.9752
14.9594
15.3193
16.0339
16.9391
50.5498
25.087
18.7703
16.3048
15.1793
14.6936
14.6123
14.8695
15.4257
16.1401
49.0598
24.9316
18.6701
16.1638
14.99
14.452
14.3036
14.4606
14.8693
15.4109
47.5482
24.8175
18.6252
16.0755
14.8487
14.2547
14.0384
14.0994
14.3732
14.7593
46.0061
24.7398
18.6371
16.0439
14.7599
14.1065
13.8217
13.7919
13.9445
14.1929
44.4237
24.6925
18.7067
16.0729
14.7284
14.0123
13.6586
13.5434
13.5883
13.7169
42.79
24.6685
18.8337
16.1656
14.7585
13.9767
13.5534
13.3578
13.3077
13.3336
41.0918
24.6592
19.0167
16.3244
14.8543
14.0039
13.51
13.238
13.1034
13.0419
39.3122
24.6546
19.252
16.5502
15.0185
14.0973
13.5314
13.1853
12.9743
12.8379
37.4293
24.6424
19.5334
16.841
15.2517
14.2587
13.6193
13.2002
12.9181
12.7157
35.4113
24.6053
19.8486
17.1898
15.5506
14.4866
13.7728
13.2812
12.9314
12.669
33.2096
24.5144
20.1749
17.5801
15.9035
14.7728
13.986
13.4235
13.0091
12.6916
30.7317
24.2859
20.4505
17.9693
16.2802
15.0952
14.2429
13.6156
13.143
12.7787
27.7844
23.8225
20.5894
18.2798
16.6174
15.4065
14.5101
13.8363
13.3262
12.9368
24.2604
22.9166
20.4828
18.4242
16.8405
15.6467
14.7459
14.0704
13.5569
13.1555
19.777
20.8944
19.7717
18.2262
16.8564
15.7658
14.9433
14.3135
13.8196
13.4225
14.6518
17.0903
17.8805
17.3374
16.5002
15.7454
15.1031
14.5667
14.1206
13.7481
12.9485
11.7405
14.4318
15.4378
15.6245
15.4688
15.1815
14.8566
14.5374
14.243
12.957
9.62105
11.2703
13.307
14.5443
15.2355
15.5757
15.6838
15.6614
15.5868
13.7321
14.4709
17.7995
21.708
25.2595
28.0133
29.9363
31.5078
32.8063
33.8612
34.7474
21.075
20.9078
20.9722
20.8666
20.4381
19.4788
18.5431
17.6568
16.8055
15.9747
15.187
14.4446
13.7428
13.0689
12.4311
11.8427
11.278
10.7171
10.1416
9.5297
8.85148
8.04089
6.97678
6.0007
44.7295
16.1327
9.84345
8.40987
7.85276
7.43202
6.93642
6.42162
6.00263
5.6627
5.37681
5.15147
4.98859
4.87748
4.81406
4.84866
4.99544
5.22347
5.50741
5.82612
6.15169
6.43594
6.62335
6.64598
9.16687
48.186
21.6004
11.5265
8.44488
7.22531
6.44555
5.76772
5.07941
4.52305
4.10201
3.77655
3.53739
3.36891
3.25976
3.20315
3.20875
3.2951
3.4662
3.72782
4.08282
4.52315
5.01371
5.50674
5.99236
9.83952
48.1554
25.7843
14.6507
10.0037
7.89391
6.58511
5.56408
4.71828
4.00825
3.51707
3.1569
2.89907
2.71136
2.58445
2.51407
2.50354
2.56348
2.69614
2.91195
3.22471
3.64354
4.15769
4.7294
5.39221
9.8869
46.392
28.7024
17.2978
11.9013
9.00894
7.10639
5.69583
4.63229
3.85526
3.30706
2.90622
2.62036
2.39489
2.22903
2.12891
2.09816
2.15197
2.27569
2.47298
2.75713
3.14412
3.63613
4.20834
4.93275
9.60032
43.9304
30.0946
19.705
13.6716
10.1075
7.72892
5.98874
4.72765
3.86066
3.28095
2.88117
2.57327
2.30685
2.08631
1.93956
1.88536
1.93593
2.06106
2.25092
2.51626
2.87473
3.33388
3.87837
4.61596
9.15128
41.1179
30.7394
21.5145
15.2852
11.2187
8.37124
6.29768
4.84165
3.90149
3.3319
2.96386
2.67429
2.4013
2.15491
1.97533
1.89198
1.91655
2.02944
2.2077
2.45495
2.78399
3.20341
3.71717
4.4923
8.68864
38.3074
30.757
22.6815
16.6368
12.2808
9.05862
6.67088
5.02285
4.00468
3.44348
3.12673
2.89248
2.65328
2.40883
2.20349
2.08403
2.07535
2.17011
2.33376
2.56535
2.87616
3.28549
3.8288
4.62871
8.3314
35.7111
30.2855
23.3338
17.698
13.2595
9.77215
7.10309
5.26805
4.17023
3.61317
3.35323
3.20316
3.05046
2.8676
2.6798
2.53732
2.49372
2.57439
2.73983
2.9943
3.36203
3.89645
4.7206
6.11334
8.98041
33.345
29.416
23.6407
18.4658
14.0754
10.426
7.55149
5.54872
4.37639
3.81437
3.60168
3.54267
3.51789
3.47855
3.42252
3.37628
3.3825
3.50309
3.741
4.12117
4.69031
5.52471
6.71225
8.20177
9.53684
31.2025
28.3483
23.6221
18.8934
14.6758
10.9848
7.97477
5.84447
4.60079
4.01837
3.82547
3.82641
3.90807
4.02011
4.14452
4.28172
4.44477
4.65771
4.9775
5.4196
5.98442
6.63847
7.28492
7.7585
7.87568
29.2626
27.198
23.3435
19.0718
15.0975
11.4541
8.37325
6.14157
4.82169
4.19566
3.98598
3.99237
4.10218
4.26692
4.46555
4.68584
4.91799
5.15319
5.42075
5.71861
6.0256
6.30281
6.49785
6.56275
6.3897
27.5083
26.0268
22.8681
19.0823
15.3783
11.8479
8.74948
6.43437
5.02779
4.33023
4.06909
4.0389
4.11575
4.24487
4.40582
4.58584
4.77339
4.96638
5.1599
5.34053
5.49207
5.58885
5.60283
5.50091
5.2293
25.9146
24.8666
22.2664
18.9741
15.5381
12.1772
9.11381
6.73202
5.227
4.43197
4.09121
4.0065
4.03854
4.12119
4.229
4.35081
4.47799
4.60747
4.72488
4.82188
4.88997
4.89991
4.82015
4.63537
4.32772
24.4571
23.7346
21.5982
18.7703
15.6169
12.4682
9.4859
7.05335
5.43077
4.52538
4.08904
3.93406
3.91849
3.96143
4.02879
4.10608
4.18946
4.26699
4.32832
4.36339
4.35839
4.29539
4.15946
3.94434
3.65935
23.1142
22.6411
20.8976
18.481
15.6517
12.7248
9.88636
7.42882
5.67555
4.63921
4.09461
3.84711
3.76932
3.77073
3.80291
3.84746
3.89297
3.92858
3.94489
3.93196
3.87938
3.77915
3.62777
3.42998
3.20163
21.8678
21.5889
20.182
18.1165
15.6601
12.9663
10.2972
7.88928
6.02609
4.82607
4.15588
3.80074
3.63634
3.57964
3.57355
3.58625
3.59997
3.60387
3.58983
3.55076
3.481
3.37783
3.24311
3.08424
2.91254
20.703
20.5765
19.4622
17.7127
15.6006
13.2003
10.723
8.40618
6.50147
5.16238
4.33912
3.86882
3.60864
3.47768
3.41773
3.39019
3.37282
3.35251
3.32101
3.27291
3.20483
3.11599
3.00878
2.88833
2.76144
19.6084
19.5998
18.7379
17.2764
15.4612
13.4192
11.1572
8.97529
7.07806
5.63735
4.67482
4.08506
3.72736
3.51508
3.3934
3.32157
3.27301
3.23211
3.18964
3.13978
3.07934
3.00729
2.92475
2.83455
2.74061
18.5766
18.6556
18.0115
16.8158
15.268
13.514
11.6021
9.58391
7.7504
6.25704
5.17557
4.46154
4.01224
3.72563
3.53985
3.41908
3.33636
3.27376
3.22051
3.16942
3.1165
3.05945
2.99739
2.93118
2.86289
17.6049
17.7426
17.283
16.3291
15.0323
13.5296
11.904
10.1984
8.48811
7.00296
5.84012
5.01282
4.45875
4.09669
3.8578
3.69492
3.58017
3.4958
3.43021
3.37476
3.32395
3.27506
3.22605
3.17585
3.12423
16.6951
16.8632
16.5538
15.8151
14.7561
13.4863
12.0986
10.6532
9.19966
7.83582
6.63827
5.73136
5.0802
4.62896
4.32268
4.11426
3.96964
3.86552
3.78644
3.72255
3.66733
3.61676
3.56883
3.52229
3.47593
15.8538
16.0247
15.8291
15.2752
14.433
13.3872
12.2178
10.9923
9.75962
8.5732
7.49196
6.58149
5.8637
5.3247
4.94339
4.6749
4.48411
4.34593
4.24266
4.16193
4.09563
4.03863
3.98763
3.94065
3.89692
15.0906
15.2395
15.1198
14.7157
14.0643
13.2261
12.2651
11.2383
10.1981
9.18771
8.24483
7.40856
6.70418
6.13861
5.70356
5.37709
5.13452
4.95354
4.81647
4.7093
4.62326
4.55276
4.49375
4.44318
4.39893
14.4164
14.5236
14.4436
14.1501
13.6568
13.0016
12.232
11.3949
10.5322
9.68252
8.87861
8.14546
7.50158
6.95721
6.51265
6.15838
5.88031
5.66199
5.49141
5.35771
5.25156
5.16633
5.09752
5.04157
4.9949
13.8406
13.8938
13.8226
13.6
13.2264
12.7224
12.1195
11.453
10.757
10.062
9.39329
8.77132
8.21037
7.71877
7.29977
6.94972
6.66206
6.42933
6.24205
6.09315
5.97483
5.88016
5.80471
5.74407
5.69446
13.3687
13.3637
13.2791
13.0925
12.7991
12.4087
11.9407
11.4194
10.8697
10.3145
9.77415
9.26495
8.79861
8.38153
8.01619
7.70147
7.43608
7.21745
7.03945
6.89545
6.77926
6.6852
6.60867
6.54619
6.49472
13.001
12.9403
12.8305
12.6543
12.4065
12.0922
11.723
11.3144
10.8832
10.4461
10.0182
9.61201
9.2368
8.89794
8.59916
8.34065
8.1215
7.93945
7.79081
7.67106
7.57547
7.49935
7.4377
7.38727
7.34572
12.7328
12.623
12.4847
12.3045
12.0784
11.8091
11.5037
11.1725
10.8274
10.4801
10.1413
9.81988
9.52277
9.25408
9.01738
8.81524
8.64488
8.50432
8.3913
8.30265
8.2347
8.18365
8.14589
8.11828
8.09822
12.5562
12.4046
12.2402
12.0518
11.8349
11.5895
11.3209
11.0368
10.7464
10.4583
10.1804
9.91904
9.67911
9.46353
9.2743
9.11384
8.98197
8.8759
8.79328
8.73154
8.68802
8.65976
8.64371
8.63707
8.63724
12.4622
12.2756
12.0911
11.8962
11.6833
11.4514
11.2037
10.9466
10.687
10.4323
10.1889
9.96188
9.75496
9.57035
9.4092
9.27193
9.15888
9.06944
9.00145
8.9523
8.91962
8.90102
8.89411
8.89659
8.90618
12.4436
12.2312
12.0322
11.832
11.6223
11.4003
11.167
10.9267
10.6849
10.4477
10.2205
10.008
9.81367
9.63952
9.48656
9.35496
9.2443
9.15368
9.08142
9.0261
8.98596
8.95885
8.94274
8.93579
8.93621
12.5028
12.2697
12.058
11.8535
11.6469
11.4334
11.2124
10.9855
10.7567
10.5305
10.3114
10.1035
9.9102
9.73367
9.57519
9.43519
9.31348
9.2093
9.12146
9.0485
8.98865
8.94007
8.90125
8.87095
8.8478
12.6384
12.3876
12.1643
11.9547
11.7493
11.5424
11.3315
11.1165
10.8994
10.6831
10.4709
10.266
10.0714
9.88914
9.72085
9.56731
9.42876
9.30498
9.19534
9.09889
9.01447
8.94077
8.87641
8.82006
8.77059
12.8432
12.5788
12.3447
12.1286
11.9216
11.7176
11.5134
11.3076
11.1005
10.8937
10.689
10.4889
10.2954
10.1104
9.93536
9.77115
9.61837
9.47721
9.34754
9.22898
9.12094
9.02265
8.93324
8.8518
8.77767
13.107
12.8361
12.5952
12.3739
12.1645
11.9611
11.7603
11.5602
11.3602
11.1609
10.9633
10.7687
10.5787
10.3945
10.2172
10.0479
9.8871
9.73515
9.59218
9.45815
9.3328
9.2158
9.10669
9.00498
8.91042
13.445
13.1795
12.9403
12.7189
12.5091
12.3062
12.107
11.9101
11.7147
11.5209
11.3293
11.1405
10.9555
10.7753
10.6007
10.4323
10.2706
10.1161
9.96894
9.82911
9.69654
9.57107
9.45242
9.3403
9.23469
13.9877
13.7538
13.5361
13.3292
13.1296
12.9352
12.7448
12.5575
12.3731
12.1915
12.0131
11.8382
11.6675
11.5015
11.3407
11.1856
11.0365
10.8936
10.757
10.6266
10.5024
10.3842
10.2717
10.1646
10.0629
15.4982
15.4036
15.31
15.2119
15.1083
15.0024
14.8949
14.7864
14.6772
14.5677
14.4584
14.3497
14.242
14.1359
14.0316
13.9295
13.8297
13.7323
13.6374
13.5449
13.4548
13.3668
13.2807
13.1965
13.1141
34.6986
35.4174
36.0413
36.5628
36.9884
37.3272
37.5863
37.7723
37.8914
37.9496
37.9531
37.9076
37.8186
37.6915
37.5314
37.343
37.1305
36.898
36.6492
36.3873
36.1152
35.8354
35.5501
35.2612
34.9705
7.23605
11.282
16.0083
11.7974
12.0285
11.0906
9.75322
9.03634
7.98943
7.56267
6.88595
5.92564
5.95657
5.32944
4.56746
4.77375
4.24759
3.70273
3.92058
3.52491
3.15394
3.34172
3.0598
2.80573
2.96855
2.76808
2.58921
2.74371
2.59894
2.46927
2.63842
2.53197
2.43565
2.65011
2.57082
2.4983
2.7974
2.73902
2.68459
3.07491
3.03001
2.98686
3.43216
3.39211
3.35353
3.85748
3.82158
3.78709
4.36143
4.32831
4.29692
4.95726
4.92495
4.89506
5.65556
5.62266
5.59277
6.45457
6.42039
6.38944
7.3136
7.28604
7.26094
8.08476
8.0745
8.06595
8.64164
8.64854
8.65687
8.91947
8.93568
8.95392
8.94173
8.95099
8.96322
8.83214
8.82042
8.81184
8.73133
8.69616
8.66409
8.71695
8.66089
8.60834
8.83167
8.75782
8.68772
9.14582
9.06159
8.98095
9.97689
9.89466
9.81533
13.0427
12.9724
12.9026
34.7145
34.4599
34.2069
4.34259
5.93278
7.28795
8.25241
9.02335
9.66023
10.2097
10.6952
11.1314
11.5281
11.892
12.2284
12.5414
12.8342
13.1097
13.3702
13.618
13.8549
14.0826
14.3026
14.5163
14.7251
14.9301
15.1326
15.3336
15.5344
15.7361
15.94
16.1473
16.3596
16.5786
16.8062
17.0448
17.2974
17.5599
17.8288
18.1042
18.3864
18.6777
18.977
19.2833
19.5987
19.9239
20.2592
20.6052
20.9622
21.3308
21.7111
22.1033
22.5071
22.9222
23.3475
23.7811
24.2195
24.6577
25.0869
25.4941
25.8581
26.1482
26.3355
26.4363
26.4631
26.4266
26.2863
25.969
25.5028
24.8539
24.0493
23.1287
22.1097
21.013
19.8369
18.7219
17.635
16.5344
15.3857
14.1457
12.7284
10.972
9.37003
9.5521
6.23769
6.78512
7.04173
7.11055
7.06788
6.96534
6.84128
6.71486
6.59602
6.48929
6.39624
6.31685
6.25032
6.19547
6.15103
6.11577
6.08857
6.06845
6.05457
6.04624
6.04291
6.04415
6.04967
6.05927
6.07288
6.09051
6.11228
6.13846
6.16941
6.20563
6.24783
6.29738
6.35504
6.4156
6.47686
6.5399
6.60488
6.67197
6.74119
6.81284
6.88702
6.96392
7.04374
7.12672
7.21307
7.30304
7.39688
7.49487
7.59729
7.7044
7.81646
7.9337
8.05627
8.1842
8.31732
8.45524
8.59768
8.74528
8.89817
9.04263
9.16128
9.24887
9.30119
9.29309
9.22657
9.10103
8.92539
8.72031
8.51348
8.32204
8.18023
8.30126
8.58372
8.94921
9.33123
9.64863
9.79848
9.68334
13.3564
11.804
6.28453
6.20958
6.10367
5.90846
5.66477
5.41381
5.18114
4.9767
4.80273
4.65755
4.53788
4.44004
4.36053
4.29625
4.2446
4.20341
4.17093
4.14578
4.12683
4.1132
4.1042
4.09932
4.09814
4.10038
4.10583
4.11436
4.1259
4.14045
4.15804
4.17876
4.2027
4.23003
4.26086
4.29532
4.33134
4.3689
4.40851
4.45041
4.49486
4.54212
4.59244
4.64613
4.7035
4.76494
4.83085
4.90169
4.97792
5.0601
5.14878
5.24456
5.34805
5.45988
5.58065
5.71086
5.85088
6.00087
6.16078
6.33032
6.50834
6.69275
6.87594
7.0434
7.17976
7.26638
7.28774
7.22189
7.07032
6.8537
6.5948
6.33046
6.1169
6.05454
6.16907
6.45582
6.89684
7.43726
7.9774
8.48004
13.7562
13.5098
6.20733
5.70963
5.39982
5.08351
4.77328
4.49184
4.25089
4.05146
3.88969
3.76004
3.6569
3.57525
3.51087
3.46034
3.42093
3.3905
3.3674
3.35033
3.33828
3.33048
3.32635
3.32542
3.32736
3.33192
3.33892
3.34824
3.35981
3.37359
3.38961
3.40788
3.42847
3.45148
3.477
3.50519
3.5362
3.56888
3.60376
3.64119
3.68144
3.72482
3.77161
3.82218
3.8769
3.93621
4.00055
4.07044
4.14642
4.2291
4.31911
4.41712
4.52384
4.63997
4.76623
4.90329
5.05167
5.21163
5.38314
5.56552
5.7569
5.95554
6.15906
6.35816
6.54064
6.68829
6.78186
6.7996
6.71913
6.52412
6.21128
5.81176
5.43623
5.19034
5.16
5.33101
5.6953
6.22236
6.82684
7.53068
13.1804
15.0017
6.11328
5.30325
4.86033
4.48387
4.156
3.88024
3.65598
3.47805
3.33888
3.23092
3.14763
3.0837
3.03491
2.99799
2.97042
2.95028
2.93611
2.92678
2.92145
2.91948
2.92037
2.92376
2.92938
2.93705
2.94661
2.958
2.97116
2.9861
3.00282
3.02138
3.04186
3.06436
3.08899
3.1159
3.14528
3.17731
3.21139
3.248
3.28749
3.33015
3.37632
3.42634
3.48061
3.53955
3.60363
3.67335
3.74926
3.83198
3.92212
4.02039
4.1275
4.2442
4.37124
4.50942
4.65945
4.82177
4.99661
5.1836
5.38155
5.58807
5.80084
6.01539
6.22509
6.41817
6.57925
6.6872
6.71203
6.61959
6.37405
5.97062
5.46408
4.98182
4.74283
4.80058
5.09
5.56307
6.1524
6.9827
12.1786
16.7026
6.00667
4.95992
4.42536
4.01875
3.69495
3.43891
3.23834
3.08447
2.9679
2.88022
2.81473
2.76622
2.73074
2.70531
2.68769
2.67617
2.6695
2.66673
2.66713
2.67018
2.67548
2.68274
2.69174
2.70235
2.71446
2.72804
2.74305
2.75952
2.77749
2.79702
2.81819
2.84113
2.86595
2.89282
2.92191
2.95343
2.98738
3.02369
3.06277
3.10491
3.15046
3.19975
3.25316
3.31111
3.37403
3.44243
3.51685
3.59786
3.68611
3.78229
3.88714
4.00144
4.12602
4.26175
4.40938
4.56987
4.74416
4.9324
5.13461
5.34944
5.57498
5.80812
6.04421
6.27774
6.50236
6.70198
6.85608
6.93432
6.8906
6.6677
6.24116
5.65563
5.0728
4.84821
4.97848
5.36519
5.94905
6.98473
11.2837
18.7611
6.13487
4.65396
4.04838
3.63288
3.32813
3.09841
2.92388
2.79386
2.69824
2.62859
2.57847
2.54305
2.51875
2.50291
2.49356
2.48923
2.48884
2.49157
2.49683
2.50416
2.51325
2.52387
2.53584
2.54907
2.56349
2.57907
2.59582
2.61377
2.63297
2.6535
2.67545
2.69893
2.72407
2.75104
2.77999
2.81113
2.84466
2.88049
2.9189
2.96019
3.00468
3.0527
3.10461
3.16082
3.22174
3.28785
3.35968
3.43779
3.52282
3.61547
3.7165
3.82674
3.94712
4.07866
4.22154
4.37782
4.5481
4.73428
4.93802
5.15763
5.39232
5.64151
5.90329
6.17512
6.45541
6.74203
7.0167
7.27381
7.49183
7.61927
7.58988
7.34115
6.8381
6.15275
5.79745
5.95242
6.45696
7.46393
10.8393
13.0212
5.66239
4.27079
3.67348
3.28573
3.01601
2.81754
2.67071
2.56418
2.48809
2.43464
2.39801
2.3739
2.35917
2.3515
2.34919
2.35099
2.35596
2.36342
2.37285
2.3839
2.3963
2.40985
2.42444
2.43999
2.45645
2.47381
2.4921
2.51136
2.53164
2.55303
2.57562
2.59953
2.62488
2.65183
2.68053
2.71118
2.74397
2.77911
2.81658
2.8567
2.89977
2.94613
2.99611
3.05008
3.10846
3.1717
3.2403
3.3148
3.39583
3.48405
3.58023
3.68519
3.79988
3.9253
4.0626
4.21317
4.37837
4.55953
4.75803
4.97482
5.21089
5.46682
5.74253
6.0372
6.35336
6.69004
7.05225
7.43499
7.85286
8.29242
8.72396
9.09475
9.33542
9.35001
9.02518
8.6202
8.68366
9.06677
11.177
8.83318
4.9017
3.82827
3.30777
2.98073
2.75338
2.58724
2.46721
2.38216
2.3232
2.28355
2.25819
2.24344
2.23657
2.23561
2.23909
2.24594
2.25535
2.26674
2.27969
2.29387
2.30907
2.32513
2.34195
2.35947
2.37768
2.39656
2.41615
2.4365
2.45766
2.47973
2.50278
2.52694
2.55233
2.5791
2.60741
2.63743
2.66936
2.70341
2.73973
2.77844
2.81985
2.86427
2.91201
2.96345
3.01895
3.07893
3.14387
3.21427
3.29071
3.3738
3.46427
3.56289
3.67054
3.78823
3.91709
4.05843
4.21363
4.3842
4.57178
4.77807
5.00488
5.25391
5.52664
5.8242
6.1474
6.49818
6.8821
7.30906
7.79738
8.36402
9.01188
9.74284
10.558
11.4518
12.4126
13.422
14.5163
15.9557
17.828
6.2903
4.17586
3.39541
2.98451
2.72144
2.53472
2.40007
2.30432
2.23788
2.19336
2.16511
2.14894
2.14174
2.14121
2.14566
2.15383
2.16478
2.17784
2.19248
2.20834
2.22515
2.24271
2.26089
2.27962
2.29884
2.31854
2.33873
2.35943
2.3807
2.40259
2.4252
2.4486
2.47292
2.49827
2.52479
2.55264
2.58198
2.61301
2.64594
2.68098
2.71822
2.75793
2.80038
2.84588
2.89475
2.94735
3.00405
3.06528
3.13149
3.2032
3.28095
3.36537
3.45713
3.55701
3.66586
3.78467
3.91454
4.05671
4.21256
4.38361
4.57158
4.77837
5.00598
5.25644
5.53164
5.83338
6.1637
6.52621
6.92801
7.38168
7.8907
8.45907
9.09466
9.80513
10.5889
11.4302
12.2988
13.1493
13.9826
14.7415
4.74203
3.58214
3.03214
2.71759
2.50794
2.35833
2.25111
2.17577
2.12462
2.09172
2.07254
2.0636
2.06233
2.06677
2.07548
2.08737
2.10161
2.11761
2.13491
2.15317
2.17217
2.19172
2.21171
2.23207
2.25276
2.27376
2.29508
2.31676
2.33884
2.36138
2.38447
2.40818
2.43262
2.45792
2.4842
2.51161
2.54032
2.57051
2.60238
2.63613
2.67201
2.71012
2.75074
2.79413
2.8406
2.89047
2.94408
3.00179
3.06401
3.13116
3.20373
3.28221
3.36717
3.4592
3.559
3.6673
3.78496
3.91289
4.05212
4.20383
4.36932
4.55005
4.74766
4.96388
5.20055
5.45953
5.74271
6.05235
6.3936
6.76799
7.1756
7.61534
8.0852
8.58033
9.10642
9.65072
10.1972
10.7109
11.1375
11.3525
3.8009
3.12759
2.74359
2.50452
2.33955
2.22086
2.13598
2.07695
2.03783
2.01398
2.00175
1.99833
2.00157
2.0098
2.02178
2.03654
2.05337
2.07171
2.09115
2.11139
2.13221
2.15344
2.17498
2.19675
2.21872
2.24088
2.26323
2.2858
2.30863
2.33179
2.35533
2.37936
2.40396
2.42926
2.45537
2.48244
2.51063
2.54012
2.57109
2.60375
2.63834
2.67503
2.71402
2.75555
2.79989
2.84733
2.89816
2.95271
3.01131
3.07432
3.14214
3.21515
3.29378
3.37849
3.46977
3.56811
3.67409
3.7883
3.91137
4.04401
4.18698
4.3411
4.50728
4.68648
4.87966
5.08782
5.31182
5.55302
5.81165
6.08764
6.38041
6.68806
7.00702
7.33116
7.65283
7.96121
8.2392
8.46563
8.57403
8.49601
3.21156
2.79298
2.52166
2.34039
2.21167
2.11789
2.0507
2.00439
1.97453
1.95753
1.95051
1.95119
1.95776
1.96881
1.98324
2.00019
2.01901
2.0392
2.06036
2.08221
2.10454
2.12718
2.15004
2.17305
2.19615
2.21935
2.24263
2.26603
2.28958
2.31334
2.33737
2.36175
2.38657
2.41195
2.438
2.46485
2.49267
2.52162
2.55188
2.58365
2.61715
2.65262
2.69023
2.73018
2.77271
2.81807
2.86652
2.91833
2.97378
3.03318
3.09682
3.16501
3.23807
3.31631
3.40004
3.48958
3.58524
3.68733
3.79614
3.91197
4.0351
4.1658
4.3043
4.45078
4.60535
4.76796
4.9385
5.11643
5.30089
5.49075
5.68426
5.87892
6.07095
6.25481
6.42084
6.55962
6.66179
6.71727
6.68247
6.52711
2.83177
2.55429
2.35798
2.21979
2.11939
2.04554
1.99236
1.95598
1.93321
1.92138
1.91823
1.92191
1.93092
1.94403
1.96027
1.97887
1.99922
2.02084
2.04336
2.06649
2.09004
2.11386
2.13783
2.16188
2.18596
2.21007
2.2342
2.25836
2.28258
2.30693
2.33144
2.35621
2.38131
2.40684
2.43292
2.45969
2.48728
2.51586
2.5456
2.57669
2.60935
2.6438
2.68026
2.71891
2.75995
2.80358
2.85004
2.89954
2.95233
3.00865
3.06874
3.13282
3.20111
3.27383
3.35116
3.43325
3.52024
3.61221
3.7092
3.81122
3.91822
4.03006
4.14654
4.26734
4.392
4.51988
4.65019
4.78174
4.91317
5.04281
5.16857
5.2878
5.39703
5.4904
5.56091
5.60208
5.61121
5.58534
5.51607
5.38328
2.58525
2.39117
2.24537
2.13835
2.05971
2.00175
1.95984
1.9314
1.91423
1.9064
1.9062
1.91213
1.92294
1.93758
1.95517
1.975
1.9965
2.0192
2.04273
2.06683
2.0913
2.116
2.14081
2.16567
2.19053
2.21537
2.24018
2.26498
2.28978
2.31463
2.33959
2.36472
2.39009
2.41582
2.44199
2.46875
2.49622
2.52457
2.55395
2.58455
2.61657
2.65022
2.68573
2.72333
2.76315
2.80539
2.85021
2.89782
2.94839
3.00214
3.05924
3.11986
3.18416
3.25226
3.32426
3.40019
3.48007
3.56384
3.65137
3.74248
3.8369
3.93429
4.03421
4.13607
4.23917
4.34264
4.44529
4.54579
4.6426
4.734
4.818
4.89228
4.95374
4.99731
5.01946
5.01806
4.99225
4.94182
4.86684
4.76618
2.43175
2.29011
2.17916
2.09514
2.03295
1.98749
1.95489
1.93306
1.92055
1.91603
1.91823
1.92597
1.93821
1.95402
1.97264
1.99338
2.01569
2.03911
2.06328
2.08794
2.1129
2.13805
2.16332
2.18861
2.2139
2.23914
2.26435
2.28951
2.31467
2.33984
2.36507
2.39043
2.41599
2.44184
2.46807
2.49482
2.5222
2.55037
2.57949
2.60973
2.64127
2.67431
2.70906
2.74579
2.78464
2.82575
2.86924
2.91529
2.96403
3.01563
3.07022
3.12793
3.18887
3.25311
3.32066
3.39153
3.46561
3.54278
3.62279
3.70538
3.79015
3.87667
3.9644
4.05268
4.14081
4.22778
4.31234
4.39313
4.4687
4.53749
4.59787
4.64803
4.68519
4.70644
4.70969
4.69416
4.66027
4.60929
4.54288
4.46259
2.35284
2.24624
2.16031
2.09379
2.04419
2.0086
1.98371
1.96756
1.95916
1.9576
1.96195
1.97128
1.98472
2.00148
2.02084
2.04218
2.06494
2.08864
2.11287
2.13739
2.1621
2.18699
2.21199
2.23706
2.26215
2.28722
2.31227
2.33731
2.36237
2.38745
2.41261
2.43789
2.46336
2.4891
2.51521
2.5418
2.569
2.59695
2.62581
2.65572
2.68686
2.71941
2.75358
2.78957
2.82761
2.86779
2.9102
2.95494
3.00214
3.05192
3.10437
3.15959
3.21764
3.27857
3.34236
3.40895
3.47822
3.54998
3.62394
3.69976
3.77703
3.85527
3.93393
4.01248
4.09029
4.16635
4.23941
4.30818
4.37141
4.42783
4.47617
4.51508
4.54246
4.55622
4.55487
4.53808
4.5067
4.46259
4.40805
4.34531
2.34738
2.26554
2.19832
2.14553
2.10602
2.07804
2.05935
2.04806
2.0434
2.04463
2.05101
2.06179
2.07624
2.09364
2.11336
2.1348
2.15742
2.18067
2.20394
2.22697
2.24999
2.27319
2.29668
2.32034
2.34411
2.36794
2.39186
2.41589
2.44003
2.46429
2.4887
2.5133
2.53814
2.56331
2.58889
2.61498
2.64173
2.66924
2.69768
2.72717
2.75788
2.78997
2.8236
2.85896
2.89632
2.93571
2.97718
3.0208
3.06665
3.1148
3.16534
3.21832
3.27378
3.33174
3.39216
3.45498
3.52006
3.58721
3.65607
3.72629
3.79747
3.86911
3.94072
4.01209
4.0827
4.15146
4.21721
4.27884
4.33527
4.3855
4.42865
4.46367
4.48891
4.50256
4.5033
4.4908
4.46583
4.43024
4.38652
4.33702
2.43062
2.36743
2.3149
2.27327
2.24201
2.22006
2.20589
2.19868
2.19739
2.20122
2.20942
2.2213
2.23621
2.25353
2.27265
2.29303
2.31415
2.33544
2.35572
2.37426
2.39261
2.41141
2.43121
2.45147
2.47196
2.49269
2.51378
2.53529
2.55717
2.57936
2.60189
2.62479
2.6481
2.67186
2.69619
2.72117
2.74692
2.77357
2.80124
2.83006
2.86016
2.89167
2.92473
2.95949
2.99619
3.03481
3.07536
3.11788
3.16241
3.20898
3.25764
3.30842
3.36134
3.4164
3.47356
3.53276
3.59393
3.6569
3.72114
3.78641
3.85232
3.91837
3.98425
4.05014
4.1154
4.17901
4.23992
4.29719
4.34994
4.39743
4.43907
4.47392
4.50052
4.51729
4.52294
4.51689
4.4995
4.47232
4.43778
4.39825
2.63239
2.58282
2.54068
2.50641
2.47997
2.46065
2.44826
2.44236
2.44178
2.4456
2.45306
2.46355
2.47654
2.49142
2.50766
2.52471
2.54215
2.55938
2.57525
2.58963
2.60353
2.61732
2.63131
2.64533
2.65951
2.67415
2.68977
2.70666
2.7243
2.74259
2.76157
2.78127
2.80168
2.82283
2.84481
2.86771
2.89166
2.91675
2.94309
2.97077
2.9999
3.03057
3.06288
3.09694
3.13286
3.17059
3.21009
3.25137
3.29443
3.33927
3.38591
3.43436
3.48461
3.53667
3.59047
3.64597
3.70306
3.76157
3.82123
3.88177
3.94285
4.00401
4.06543
4.12695
4.18794
4.24756
4.3049
4.35927
4.41001
4.45647
4.49804
4.53388
4.56281
4.58343
4.59447
4.59506
4.58506
4.56548
4.53855
4.50669
2.94343
2.90052
2.86229
2.82959
2.80302
2.7824
2.76817
2.75947
2.75552
2.75554
2.75884
2.76489
2.7732
2.7833
2.79465
2.8066
2.81891
2.8312
2.84349
2.85631
2.8688
2.88049
2.89101
2.90081
2.91026
2.91966
2.92943
2.93991
2.95106
2.96305
2.97642
2.99117
3.00706
3.02405
3.04228
3.06191
3.08303
3.10569
3.12996
3.1559
3.18356
3.21297
3.24419
3.27732
3.31218
3.34871
3.38683
3.42651
3.46772
3.51046
3.55472
3.60049
3.64777
3.69654
3.74676
3.79838
3.85131
3.90543
3.96055
4.01649
4.073
4.12985
4.1872
4.24488
4.30244
4.35891
4.41332
4.4653
4.51427
4.55961
4.60072
4.637
4.66745
4.69093
4.70628
4.71248
4.70892
4.69592
4.67529
4.64941
3.31411
3.27459
3.23838
3.20612
3.17903
3.15755
3.14139
3.12994
3.12253
3.11855
3.11739
3.11857
3.12171
3.12643
3.13232
3.13889
3.14603
3.15367
3.16217
3.17144
3.18102
3.19058
3.19987
3.2088
3.2173
3.22516
3.23225
3.23861
3.24496
3.25179
3.25955
3.26839
3.27838
3.28971
3.30271
3.31796
3.33527
3.35459
3.37604
3.3996
3.42519
3.45279
3.48239
3.51401
3.54717
3.58177
3.61775
3.65508
3.69371
3.73365
3.77488
3.8174
3.86119
3.90626
3.95257
4.00009
4.04873
4.09841
4.14899
4.20031
4.25221
4.30455
4.35739
4.41068
4.46369
4.51565
4.56637
4.61533
4.66176
4.70502
4.74448
4.77966
4.80993
4.83437
4.85197
4.86168
4.86258
4.85435
4.83825
4.81659
3.75149
3.71554
3.6819
3.65098
3.62375
3.60135
3.58343
3.56929
3.55827
3.55006
3.54422
3.54036
3.53819
3.53745
3.53792
3.53963
3.54225
3.54562
3.54964
3.55428
3.55943
3.56495
3.57066
3.57648
3.58236
3.58823
3.59401
3.5996
3.60509
3.61067
3.61612
3.62169
3.62793
3.6352
3.6439
3.65455
3.66726
3.68235
3.70047
3.72123
3.74435
3.7697
3.79723
3.82639
3.85679
3.88837
3.92109
3.95493
3.98988
4.02593
4.0631
4.10138
4.14078
4.18129
4.2229
4.26555
4.3092
4.35375
4.39907
4.44502
4.49142
4.53807
4.58484
4.63152
4.67776
4.72321
4.76785
4.81087
4.85165
4.88972
4.92491
4.95684
4.98477
5.00781
5.02509
5.03565
5.03842
5.03267
5.01906
4.99969
4.26455
4.23194
4.20098
4.17168
4.14458
4.12069
4.10033
4.08309
4.06857
4.05637
4.04621
4.03782
4.0309
4.02523
4.02063
4.017
4.01422
4.01225
4.01106
4.01064
4.01092
4.01184
4.01329
4.01523
4.01762
4.02057
4.02385
4.02732
4.03098
4.03494
4.03934
4.04431
4.04999
4.05653
4.06412
4.07271
4.08297
4.09556
4.11145
4.13001
4.15087
4.17404
4.19872
4.22433
4.25084
4.27822
4.30646
4.33557
4.36554
4.39639
4.42812
4.46075
4.49427
4.52868
4.56397
4.60009
4.637
4.6746
4.71279
4.75143
4.79035
4.82937
4.86831
4.90697
4.94508
4.98235
5.01847
5.05307
5.08575
5.11621
5.14437
5.16979
5.1918
5.20973
5.22287
5.23043
5.23141
5.22486
5.21098
5.19149
4.86458
4.83428
4.80531
4.77739
4.75059
4.72539
4.70228
4.68158
4.6633
4.64704
4.63249
4.61942
4.60762
4.59693
4.58723
4.57841
4.57043
4.56328
4.55707
4.55178
4.54732
4.5436
4.54053
4.53807
4.53619
4.53489
4.53414
4.53391
4.53424
4.53531
4.53737
4.54054
4.54487
4.55047
4.55763
4.56728
4.57931
4.59335
4.60882
4.62598
4.64456
4.66376
4.68345
4.70365
4.72439
4.74569
4.76759
4.79009
4.81322
4.83699
4.86143
4.88654
4.91232
4.93877
4.96586
4.99358
5.02187
5.05066
5.07986
5.10936
5.13902
5.16869
5.19819
5.22736
5.25597
5.28377
5.31049
5.33581
5.35944
5.38109
5.40051
5.41738
5.43129
5.44177