/*--------------------------------*- C++ -*----------------------------------*\
| =========                 |                                                 |
| \\      /  F ield         | OpenFOAM: The Open Source CFD Toolbox           |
|  \\    /   O peration     | Version:  v2012                                 |
|   \\  /    A nd           | Website:  www.openfoam.com                      |
|    \\/     M anipulation  |                                                 |
\*---------------------------------------------------------------------------*/
FoamFile
{
    version     2.0;
    format      ascii;
    class       volScalarField;
    location    "597";
    object      p;
}
// * * * * * * * * * * * * * * * * * * * * * * * * * * * * * * * * * * * * * //

dimensions      [0 2 -2 0 0 0 0];


internalField   nonuniform List<scalar> 
6598
(
0.354515
0.353809
0.353428
0.353267
0.353198
0.353198
0.353266
0.353427
0.353807
0.354513
0.353718
0.353515
0.353325
0.353206
0.353151
0.35315
0.353206
0.353324
0.353513
0.353717
0.353172
0.353185
0.35311
0.35303
0.352992
0.352991
0.353029
0.353108
0.353183
0.35317
0.352842
0.352903
0.352863
0.352805
0.352779
0.352778
0.352803
0.352861
0.3529
0.352839
0.352576
0.352644
0.352618
0.352571
0.352549
0.352548
0.352568
0.352615
0.352641
0.352572
0.352322
0.352386
0.352367
0.352329
0.352309
0.352308
0.352325
0.352362
0.35238
0.352316
0.352072
0.352129
0.35211
0.352077
0.35206
0.352059
0.352072
0.352102
0.35212
0.352064
0.351828
0.351877
0.351855
0.351824
0.351808
0.351805
0.351816
0.351844
0.351864
0.351815
0.351586
0.351628
0.351605
0.351573
0.351556
0.351552
0.351562
0.351587
0.351608
0.351566
0.351347
0.351382
0.351356
0.351324
0.351306
0.3513
0.351307
0.35133
0.351351
0.351316
0.351109
0.351138
0.35111
0.351077
0.351056
0.351047
0.351051
0.351071
0.351092
0.351062
0.350875
0.350899
0.350869
0.350833
0.350808
0.350794
0.350793
0.350809
0.350829
0.350804
0.350646
0.350666
0.350633
0.350593
0.350561
0.350541
0.350533
0.350543
0.350561
0.350539
0.350427
0.350443
0.350405
0.350358
0.350317
0.350285
0.350268
0.35027
0.350284
0.350265
0.350222
0.350234
0.350189
0.350131
0.350075
0.350028
0.349996
0.349986
0.349995
0.349978
0.350037
0.350045
0.34999
0.349916
0.349837
0.349764
0.349711
0.349685
0.349687
0.349672
0.349883
0.349886
0.349817
0.349718
0.349608
0.349498
0.349408
0.349355
0.34935
0.349341
0.349775
0.349771
0.349682
0.349546
0.349388
0.349222
0.349073
0.348978
0.348969
0.348979
0.349734
0.349721
0.349605
0.349418
0.349185
0.348928
0.348677
0.348501
0.348486
0.348617
0.349787
0.349766
0.349616
0.349361
0.349027
0.348636
0.348218
0.347907
0.347885
0.348352
0.349973
0.349946
0.349754
0.349414
0.348947
0.348361
0.34764
0.34687
0.345961
0.341704
0.35033
0.350298
0.350066
0.34964
0.349041
0.348272
0.347266
0.345893
0.345058
0.346883
0.3509
0.350873
0.350607
0.350103
0.349382
0.34847
0.347339
0.345672
0.34362
0.345299
0.351735
0.35172
0.351425
0.350847
0.350007
0.348933
0.347637
0.345801
0.342668
0.343148
0.352884
0.352886
0.352562
0.35191
0.350949
0.349702
0.348194
0.346267
0.34276
0.342405
0.354397
0.354416
0.354064
0.353336
0.352254
0.35084
0.349115
0.347052
0.343309
0.341794
0.356324
0.356361
0.355978
0.355168
0.353957
0.352368
0.350412
0.348154
0.344269
0.341479
0.358743
0.358804
0.358391
0.357489
0.356129
0.354342
0.352125
0.3496
0.345711
0.341757
0.361749
0.361836
0.361391
0.36038
0.358846
0.356828
0.354311
0.351393
0.347403
0.343062
0.365416
0.365528
0.365024
0.363878
0.362143
0.359864
0.357036
0.353716
0.349469
0.345055
0.36981
0.369947
0.369359
0.368054
0.366083
0.363499
0.360328
0.356619
0.35207
0.347401
0.374997
0.375146
0.374467
0.372978
0.370726
0.367774
0.364176
0.360001
0.355146
0.350068
0.381082
0.381239
0.380452
0.378741
0.376152
0.372753
0.36862
0.36385
0.358523
0.352891
0.388194
0.388354
0.387436
0.385462
0.382472
0.378543
0.37376
0.368259
0.362223
0.355897
0.396468
0.396627
0.395556
0.393277
0.389828
0.385285
0.379744
0.373366
0.366425
0.35923
0.406048
0.406205
0.40496
0.402342
0.39838
0.39315
0.386753
0.379372
0.371348
0.363092
0.417087
0.417241
0.415807
0.412822
0.408302
0.402323
0.39499
0.386499
0.37724
0.367742
0.429734
0.429886
0.428253
0.424881
0.419777
0.413006
0.404678
0.394999
0.38439
0.373492
0.444127
0.44428
0.442441
0.438676
0.432976
0.425398
0.416048
0.40514
0.393115
0.380694
0.46038
0.460535
0.458488
0.454334
0.448048
0.439674
0.429315
0.417183
0.403725
0.389713
0.478568
0.478723
0.47647
0.471941
0.465096
0.455967
0.44465
0.431349
0.416504
0.400895
0.49872
0.498866
0.496407
0.491522
0.484164
0.474346
0.462159
0.447795
0.43167
0.414539
0.520791
0.520915
0.518247
0.513029
0.50521
0.49479
0.481854
0.466579
0.449344
0.430849
0.544661
0.544745
0.541859
0.536324
0.528103
0.517179
0.503636
0.487635
0.469512
0.44989
0.57013
0.570145
0.567021
0.561178
0.552605
0.541278
0.52728
0.510759
0.492007
0.471554
0.596913
0.596821
0.593425
0.587265
0.578381
0.566743
0.552438
0.535605
0.516492
0.49554
0.624642
0.624394
0.620673
0.614168
0.604995
0.593125
0.578648
0.561699
0.542487
0.521367
0.652859
0.652395
0.648281
0.641387
0.631935
0.619896
0.605366
0.588475
0.569397
0.548412
0.681019
0.680271
0.675681
0.668345
0.65862
0.646476
0.632002
0.615321
0.596576
0.575981
0.708475
0.707363
0.702217
0.694401
0.684432
0.672261
0.657956
0.641628
0.623384
0.603382
0.734447
0.73288
0.727127
0.718856
0.708727
0.696654
0.682665
0.66684
0.649251
0.629999
0.757962
0.755842
0.749563
0.740993
0.730886
0.719112
0.705636
0.690496
0.673714
0.655341
0.777703
0.775079
0.768576
0.760066
0.750324
0.73917
0.726485
0.71225
0.696442
0.679066
0.791424
0.789683
0.783661
0.775579
0.766623
0.756512
0.744963
0.73189
0.717234
0.700963
0.797579
0.797639
0.793662
0.78706
0.779574
0.77102
0.760989
0.749346
0.736015
0.720937
0.799042
0.799729
0.798277
0.794328
0.789163
0.782724
0.774596
0.764623
0.75274
0.738893
0.799106
0.79938
0.799265
0.798038
0.795693
0.791817
0.785947
0.777871
0.767527
0.754909
0.799044
0.79856
0.7987
0.799415
0.799705
0.79849
0.795062
0.789034
0.780287
0.768873
0.79975
0.798771
0.798737
0.800241
0.802468
0.803559
0.802224
0.79788
0.790482
0.780092
0.800942
0.800379
0.800596
0.802503
0.805545
0.808117
0.808642
0.805885
0.800058
0.791271
0.321176
0.324953
0.327428
0.32949
0.330769
0.33106
0.330516
0.329275
0.327475
0.325477
0.323442
0.321446
0.319687
0.318327
0.317411
0.316935
0.316908
0.317338
0.318203
0.319434
0.320896
0.322362
0.32349
0.324022
0.324165
0.328754
0.325775
0.325962
0.327359
0.328486
0.328885
0.328351
0.327052
0.3253
0.32337
0.321463
0.31971
0.318237
0.317123
0.316391
0.316042
0.316069
0.316488
0.317289
0.318443
0.319874
0.321425
0.322872
0.32382
0.324192
0.329241
0.326018
0.325301
0.32596
0.326706
0.32692
0.326345
0.325112
0.323488
0.32171
0.319981
0.318436
0.317169
0.316237
0.315648
0.315382
0.315422
0.31577
0.316421
0.317363
0.318562
0.319942
0.321385
0.322626
0.323375
0.327961
0.324911
0.324018
0.324462
0.325101
0.325269
0.324681
0.323447
0.321862
0.320168
0.318554
0.317161
0.316065
0.315281
0.314797
0.314593
0.31465
0.314968
0.315541
0.316352
0.317374
0.318555
0.319806
0.320977
0.321857
0.328235
0.323745
0.322297
0.322648
0.32341
0.323642
0.323158
0.322032
0.320541
0.318968
0.317494
0.316242
0.315273
0.314593
0.314178
0.314008
0.314069
0.314362
0.314879
0.315604
0.31651
0.317552
0.318643
0.319649
0.320511
0.329366
0.323524
0.321125
0.321263
0.322089
0.322429
0.322088
0.321125
0.319758
0.318297
0.316927
0.315779
0.314898
0.314281
0.313902
0.313749
0.31381
0.314087
0.314573
0.315251
0.316096
0.317068
0.318074
0.318915
0.31959
0.330312
0.324171
0.321265
0.321045
0.321651
0.322012
0.321729
0.320899
0.319622
0.318231
0.316907
0.315795
0.314949
0.314355
0.31399
0.313844
0.313907
0.314178
0.314655
0.315322
0.316157
0.317134
0.318173
0.318955
0.31922
0.331434
0.325802
0.322857
0.322165
0.322437
0.322741
0.322478
0.321612
0.320296
0.318874
0.317513
0.316366
0.315492
0.314881
0.314504
0.314346
0.3144
0.314666
0.315147
0.315836
0.316713
0.317765
0.318975
0.319961
0.319719
0.333646
0.328419
0.32552
0.324482
0.324437
0.324555
0.324213
0.323214
0.321865
0.32034
0.318861
0.317581
0.316593
0.315902
0.315475
0.315285
0.315318
0.315572
0.316057
0.31677
0.317688
0.318767
0.320051
0.321685
0.323391
0.336701
0.331747
0.328881
0.327648
0.327374
0.327289
0.326768
0.32567
0.324304
0.32268
0.32103
0.319532
0.318315
0.317429
0.316864
0.316586
0.31656
0.316758
0.317176
0.31781
0.318651
0.319711
0.3211
0.322964
0.325082
0.340021
0.335344
0.332561
0.331257
0.330854
0.330641
0.330057
0.328953
0.327496
0.325826
0.324067
0.322366
0.320868
0.319673
0.31882
0.318316
0.318136
0.318212
0.318525
0.319081
0.319886
0.32095
0.322277
0.323787
0.325574
0.343318
0.338844
0.336165
0.334844
0.334361
0.334088
0.333512
0.332461
0.33108
0.329514
0.327821
0.326104
0.324485
0.323069
0.32195
0.321185
0.320785
0.320716
0.320974
0.321566
0.32248
0.323614
0.324926
0.326422
0.328419
0.346445
0.342066
0.339413
0.338057
0.337519
0.337228
0.336709
0.335767
0.334553
0.333205
0.331736
0.330215
0.328748
0.327411
0.326349
0.325601
0.325118
0.324944
0.325129
0.325684
0.326565
0.327622
0.328997
0.330676
0.332238
0.34941
0.344933
0.342178
0.340723
0.34011
0.339794
0.339322
0.338489
0.337444
0.336342
0.335133
0.333821
0.332578
0.331499
0.330639
0.330022
0.329639
0.329506
0.329737
0.330322
0.331065
0.331884
0.332816
0.333817
0.334754
0.352366
0.347543
0.344514
0.342854
0.342095
0.341719
0.341278
0.340541
0.339587
0.338655
0.337724
0.336692
0.335652
0.334754
0.334066
0.3336
0.333344
0.333297
0.333479
0.333845
0.334314
0.334862
0.335461
0.336072
0.336687
0.355534
0.350101
0.34659
0.344578
0.34357
0.343069
0.342635
0.34199
0.341107
0.34021
0.339432
0.338668
0.337875
0.337167
0.336604
0.336217
0.336014
0.335985
0.336105
0.336332
0.336643
0.33703
0.33746
0.337897
0.338318
0.359196
0.35288
0.348645
0.34609
0.344699
0.343973
0.343482
0.342911
0.34215
0.341285
0.340499
0.339837
0.339239
0.338706
0.338279
0.337977
0.337811
0.337783
0.337882
0.338079
0.338342
0.338647
0.33897
0.339286
0.339576
0.363694
0.356214
0.350986
0.347655
0.345707
0.344621
0.343963
0.343396
0.342738
0.341987
0.341246
0.340592
0.34005
0.339605
0.33926
0.33902
0.338894
0.338885
0.338995
0.339195
0.33945
0.339728
0.340005
0.340261
0.340482
0.369416
0.360501
0.353987
0.34961
0.346876
0.345257
0.344285
0.343603
0.342973
0.342309
0.341649
0.341057
0.340549
0.340135
0.33983
0.339634
0.33954
0.339546
0.339647
0.339834
0.340093
0.340385
0.340664
0.34091
0.341112
0.376778
0.366182
0.358085
0.352362
0.348572
0.346187
0.344719
0.343769
0.343052
0.342408
0.341799
0.341255
0.340801
0.340448
0.3402
0.340052
0.339998
0.340025
0.340119
0.340282
0.340514
0.340791
0.341081
0.341345
0.341556
0.386203
0.373732
0.363776
0.35639
0.351232
0.347798
0.345588
0.344175
0.343219
0.34249
0.341877
0.341355
0.340934
0.340623
0.340421
0.340322
0.340317
0.340393
0.340532
0.340716
0.340924
0.341159
0.341423
0.341687
0.341913
0.398081
0.383624
0.371586
0.362235
0.355371
0.350562
0.347312
0.34517
0.34376
0.342791
0.342071
0.341509
0.341079
0.340776
0.340596
0.340532
0.34057
0.340693
0.34088
0.341108
0.341349
0.341586
0.341819
0.342051
0.34226
0.412723
0.396284
0.382037
0.370471
0.361579
0.35504
0.350407
0.347219
0.345069
0.343622
0.342628
0.34192
0.34141
0.341063
0.340865
0.340804
0.340864
0.341022
0.34125
0.341514
0.341783
0.342037
0.342271
0.342469
0.342632
0.430306
0.412022
0.395576
0.381656
0.370473
0.361868
0.355484
0.35089
0.347665
0.345442
0.343919
0.342873
0.342156
0.341681
0.341406
0.341307
0.341366
0.341543
0.341794
0.34207
0.342323
0.342541
0.342729
0.342884
0.343009
0.450821
0.430965
0.412493
0.396239
0.382625
0.37169
0.363213
0.356839
0.352168
0.348818
0.346454
0.344806
0.343672
0.342916
0.342461
0.342265
0.34229
0.342435
0.342603
0.342769
0.342928
0.343071
0.343197
0.34331
0.343414
0.474033
0.452992
0.432834
0.414454
0.398448
0.385058
0.374237
0.36575
0.35926
0.354404
0.350837
0.348258
0.346424
0.345156
0.344353
0.343932
0.343739
0.343641
0.343582
0.34356
0.343596
0.343671
0.343757
0.343839
0.343913
0.499487
0.477715
0.456335
0.436222
0.418071
0.402298
0.38904
0.378215
0.369594
0.362871
0.357722
0.353837
0.350946
0.348836
0.347399
0.346457
0.34575
0.345215
0.344869
0.344673
0.344578
0.344543
0.344541
0.344552
0.344566
0.52654
0.504495
0.482418
0.461095
0.441236
0.42337
0.407792
0.394584
0.383651
0.374784
0.367712
0.362147
0.357808
0.354447
0.351947
0.350118
0.348732
0.347707
0.346982
0.34648
0.346132
0.34589
0.345719
0.345594
0.345495
0.554439
0.532531
0.510261
0.488288
0.467275
0.447784
0.430219
0.414798
0.401568
0.390439
0.381226
0.37369
0.367567
0.362589
0.358575
0.355533
0.353331
0.351654
0.350341
0.349333
0.34857
0.347989
0.347539
0.347182
0.346889
0.58242
0.560967
0.538919
0.516806
0.495199
0.474638
0.455567
0.438299
0.422998
0.409693
0.398304
0.38867
0.380579
0.373786
0.368047
0.363392
0.359931
0.357353
0.35528
0.35359
0.352227
0.351133
0.350254
0.349538
0.348943
0.609792
0.589013
0.567481
0.545613
0.523883
0.502772
0.482717
0.464073
0.447083
0.431875
0.418469
0.406797
0.396727
0.388079
0.380647
0.374302
0.369094
0.365008
0.361849
0.359345
0.357259
0.355512
0.354061
0.352846
0.351814
0.636008
0.616032
0.595186
0.573803
0.552271
0.531008
0.510417
0.490856
0.47261
0.455871
0.440742
0.427241
0.415317
0.404868
0.395763
0.387868
0.381045
0.375278
0.370559
0.366712
0.363553
0.360966
0.358846
0.357057
0.355501
0.660682
0.641571
0.621483
0.600692
0.579527
0.55835
0.537528
0.517406
0.498281
0.480383
0.463868
0.448821
0.435259
0.423148
0.412417
0.402976
0.394725
0.387576
0.381393
0.37609
0.371642
0.367922
0.364783
0.362117
0.359841
0.683578
0.665343
0.646013
0.625824
0.605068
0.584071
0.563175
0.542709
0.522971
0.504207
0.486607
0.4703
0.455354
0.441788
0.429579
0.418676
0.40901
0.400501
0.393053
0.386578
0.380981
0.376121
0.371887
0.368246
0.365147
0.704571
0.687184
0.668557
0.648912
0.62852
0.607692
0.586758
0.566039
0.545834
0.526397
0.507936
0.490608
0.474517
0.459717
0.446224
0.43402
0.42306
0.413286
0.404621
0.396981
0.390273
0.3844
0.37927
0.37481
0.37094
0.723519
0.706916
0.688898
0.669695
0.649581
0.628859
0.607861
0.586911
0.566307
0.546311
0.527143
0.508976
0.491938
0.476109
0.461531
0.448212
0.436131
0.425245
0.415495
0.406808
0.399104
0.392298
0.386302
0.381034
0.376414
0.740455
0.724508
0.70695
0.688027
0.668012
0.647241
0.626077
0.604856
0.58387
0.563378
0.543605
0.524735
0.506911
0.49023
0.474753
0.460506
0.447486
0.435665
0.424996
0.41542
0.406865
0.399254
0.392503
0.386534
0.381264
0.755251
0.739806
0.722502
0.703684
0.68368
0.662818
0.641453
0.619948
0.598607
0.577683
0.557402
0.537954
0.51949
0.502119
0.485915
0.470916
0.457131
0.444546
0.433124
0.422814
0.413553
0.40527
0.397888
0.391329
0.385517
0.767001
0.751788
0.734588
0.71576
0.695648
0.674639
0.653088
0.631328
0.609658
0.588344
0.56762
0.547684
0.528692
0.510765
0.493985
0.478401
0.46403
0.450865
0.438876
0.428021
0.41824
0.409465
0.401623
0.394633
0.388412
0.779214
0.764375
0.747336
0.728534
0.708314
0.687073
0.665195
0.643027
0.620882
0.599043
0.577754
0.557222
0.537613
0.519057
0.501646
0.485435
0.470448
0.456685
0.444129
0.43274
0.422462
0.413228
0.404967
0.397605
0.391072
0.318271
0.317751
0.317033
0.323489
0.323115
0.32551
0.326647
0.328647
0.331688
0.327497
0.330062
0.332967
0.33061
0.332448
0.334094
0.333537
0.334635
0.335634
0.335563
0.336305
0.336998
0.337248
0.33774
0.338183
0.338684
0.338985
0.339243
0.33981
0.339993
0.340137
0.34065
0.34077
0.340852
0.341256
0.341353
0.341408
0.341702
0.341796
0.341847
0.342067
0.342165
0.342218
0.34241
0.342506
0.342556
0.342755
0.342835
0.342874
0.343104
0.343166
0.343191
0.34349
0.343536
0.343548
0.343963
0.343986
0.343981
0.344568
0.344552
0.344516
0.345407
0.345321
0.345226
0.346647
0.346438
0.346239
0.34846
0.348058
0.347693
0.350977
0.350292
0.349683
0.354226
0.353176
0.352243
0.358002
0.356503
0.355182
0.362653
0.360617
0.358811
0.367784
0.365179
0.362847
0.372618
0.369477
0.36666
0.37691
0.373299
0.370054
0.3807
0.376681
0.373057
0.383213
0.378897
0.375037
0.38553
0.380849
0.376725
0.36249
0.362443
0.362306
0.361868
0.360935
0.359575
0.357936
0.356144
0.354301
0.352477
0.35072
0.349058
0.347508
0.346076
0.344763
0.343566
0.34248
0.341498
0.340616
0.339825
0.339121
0.338498
0.337951
0.337476
0.33707
0.336729
0.336451
0.336235
0.336078
0.33598
0.335941
0.335964
0.336045
0.336187
0.33639
0.336657
0.336986
0.337373
0.337832
0.338371
0.338984
0.339674
0.340443
0.341293
0.342225
0.343241
0.344341
0.345524
0.346787
0.348125
0.349527
0.35098
0.352461
0.35394
0.355374
0.356698
0.357814
0.3586
0.358997
0.359034
0.358611
0.35763
0.356154
0.354135
0.351446
0.348233
0.344777
0.3412
0.337649
0.33444
0.331893
0.33019
0.32942
0.329656
0.330896
0.332955
0.335421
0.337607
0.33883
0.339225
0.3626
0.362468
0.362263
0.361641
0.360565
0.359167
0.357541
0.355793
0.354006
0.352243
0.350543
0.348934
0.347429
0.346034
0.344752
0.343579
0.342511
0.341543
0.340669
0.339885
0.339183
0.338559
0.33801
0.337529
0.337116
0.336766
0.336477
0.336248
0.336077
0.335963
0.335906
0.335903
0.335958
0.336069
0.336242
0.336483
0.33679
0.337136
0.337538
0.338025
0.338583
0.33921
0.339909
0.340681
0.341527
0.342447
0.343441
0.344504
0.345633
0.346821
0.348057
0.349324
0.350603
0.351865
0.353072
0.354177
0.355113
0.355807
0.356207
0.356283
0.355955
0.355132
0.353657
0.351498
0.348741
0.345493
0.341985
0.338449
0.335087
0.332155
0.329877
0.328378
0.327718
0.327951
0.329082
0.331039
0.333596
0.336314
0.338313
0.33917
0.362703
0.362206
0.361588
0.36067
0.359467
0.358055
0.356494
0.354853
0.353192
0.351554
0.349972
0.348468
0.347054
0.345737
0.34452
0.343401
0.342377
0.341445
0.340599
0.339836
0.339151
0.338539
0.337997
0.337521
0.337108
0.336756
0.336462
0.336225
0.336044
0.335917
0.335845
0.335826
0.335861
0.335949
0.336093
0.336298
0.336569
0.336896
0.337273
0.337709
0.338214
0.338785
0.339423
0.340128
0.3409
0.341738
0.34264
0.343604
0.344623
0.345689
0.346792
0.347916
0.34904
0.350138
0.351177
0.352118
0.352913
0.353523
0.353893
0.353931
0.353553
0.352719
0.351336
0.349335
0.346732
0.343619
0.340205
0.336759
0.333542
0.330781
0.328682
0.327367
0.326822
0.32699
0.327843
0.329354
0.331441
0.333911
0.336187
0.337708
0.361874
0.361057
0.360163
0.359117
0.357895
0.356531
0.355074
0.35357
0.352058
0.350569
0.349128
0.347752
0.346452
0.345235
0.344103
0.343055
0.342092
0.34121
0.340406
0.339676
0.339017
0.338426
0.337899
0.337434
0.337027
0.336677
0.336382
0.336141
0.335952
0.335815
0.335729
0.335694
0.33571
0.335778
0.335898
0.336072
0.3363
0.336584
0.336924
0.337321
0.337777
0.338294
0.338872
0.339512
0.340213
0.340974
0.341794
0.342668
0.343592
0.344558
0.345555
0.346571
0.347588
0.348582
0.349525
0.350387
0.351131
0.351731
0.352159
0.352322
0.352051
0.351241
0.349851
0.34788
0.345343
0.342299
0.338926
0.335507
0.332381
0.329772
0.327807
0.326593
0.326135
0.326326
0.327091
0.32837
0.330098
0.332165
0.334219
0.33578
0.359827
0.358842
0.357951
0.356986
0.355873
0.354639
0.353335
0.352001
0.350661
0.34934
0.348056
0.346823
0.345652
0.344547
0.343513
0.342551
0.34166
0.340839
0.340086
0.339399
0.338775
0.338212
0.337707
0.337259
0.336864
0.336522
0.336231
0.335989
0.335797
0.335653
0.335556
0.335508
0.335508
0.335556
0.335653
0.335801
0.336
0.336249
0.336551
0.336907
0.337318
0.337784
0.338308
0.338888
0.339525
0.340217
0.340962
0.341758
0.342598
0.343476
0.344383
0.345307
0.346232
0.347138
0.347995
0.348783
0.349471
0.350021
0.350406
0.35056
0.35035
0.349672
0.348468
0.346695
0.344359
0.341543
0.338375
0.335091
0.332038
0.329517
0.327677
0.326564
0.326178
0.326417
0.327174
0.328376
0.329949
0.331756
0.33348
0.334737
0.355457
0.355015
0.354676
0.354109
0.353304
0.352328
0.351264
0.350165
0.34904
0.347914
0.346806
0.345732
0.3447
0.343719
0.342792
0.341923
0.341112
0.340359
0.339664
0.339026
0.338443
0.337914
0.337436
0.337009
0.33663
0.336299
0.336015
0.335777
0.335583
0.335435
0.335331
0.335271
0.335256
0.335286
0.335363
0.335486
0.335656
0.335874
0.33614
0.336457
0.336825
0.337244
0.337716
0.33824
0.338816
0.339443
0.340119
0.340841
0.341604
0.342402
0.343226
0.344066
0.344911
0.345744
0.346517
0.347227
0.347863
0.348378
0.348741
0.348879
0.348706
0.34818
0.347253
0.345826
0.343863
0.341424
0.338669
0.335773
0.332947
0.33049
0.328651
0.327547
0.327167
0.327421
0.328188
0.329393
0.330943
0.332627
0.334025
0.334896
0.347773
0.349686
0.350377
0.350522
0.350239
0.349669
0.34896
0.348158
0.347284
0.346375
0.345457
0.344549
0.343662
0.342808
0.341992
0.341218
0.34049
0.339808
0.339174
0.338588
0.338048
0.337554
0.337106
0.336702
0.336342
0.336025
0.33575
0.335516
0.335324
0.335173
0.335062
0.334993
0.334965
0.334979
0.335036
0.335136
0.335279
0.335468
0.335702
0.335981
0.336308
0.336683
0.337107
0.337578
0.338098
0.338664
0.339276
0.33993
0.340621
0.341346
0.342094
0.342858
0.343629
0.344398
0.345117
0.345775
0.346374
0.346863
0.347226
0.347411
0.347349
0.347004
0.346333
0.345283
0.34384
0.341984
0.339806
0.337462
0.334993
0.332707
0.330847
0.329639
0.329164
0.329388
0.330201
0.331482
0.333105
0.334783
0.335965
0.336249
0.331624
0.341271
0.344697
0.346303
0.346824
0.346825
0.346561
0.346091
0.345484
0.344799
0.344072
0.343329
0.342586
0.341856
0.341148
0.340469
0.339822
0.339212
0.338638
0.338103
0.337607
0.337151
0.336733
0.336354
0.336013
0.33571
0.335445
0.335217
0.335027
0.334874
0.334759
0.334681
0.334641
0.33464
0.334679
0.334757
0.334876
0.335036
0.335239
0.335484
0.335773
0.336106
0.336485
0.336908
0.337375
0.337886
0.338439
0.339032
0.33966
0.340319
0.341002
0.341701
0.342402
0.343101
0.343806
0.34447
0.345051
0.345539
0.345894
0.346124
0.346212
0.34609
0.345707
0.345031
0.344132
0.343009
0.341521
0.339738
0.337826
0.335948
0.334264
0.332951
0.332138
0.33189
0.332302
0.333382
0.334814
0.336264
0.337516
0.337489
0.331812
0.337396
0.340679
0.342785
0.343824
0.344286
0.344365
0.344165
0.343788
0.3433
0.342743
0.342147
0.341534
0.340918
0.34031
0.339718
0.339147
0.338602
0.338086
0.3376
0.337146
0.336724
0.336336
0.33598
0.335658
0.33537
0.335115
0.334893
0.334706
0.334552
0.334432
0.334346
0.334296
0.334281
0.334302
0.334361
0.334456
0.334591
0.334765
0.334979
0.335233
0.335529
0.335866
0.336245
0.336667
0.337129
0.337631
0.338172
0.338747
0.339354
0.339986
0.340637
0.341299
0.341962
0.342621
0.343258
0.343848
0.344381
0.344829
0.345176
0.34541
0.345503
0.345429
0.345167
0.344713
0.344103
0.343299
0.342275
0.341226
0.340227
0.339251
0.338263
0.337446
0.336907
0.336721
0.337022
0.338045
0.340132
0.343127
0.345075
0.334742
0.337454
0.339468
0.340968
0.341924
0.342459
0.342647
0.342586
0.342353
0.342001
0.341572
0.341091
0.340582
0.340059
0.339535
0.339016
0.338511
0.338023
0.337556
0.337114
0.336696
0.336306
0.335943
0.335609
0.335304
0.335028
0.334782
0.334566
0.33438
0.334225
0.334101
0.334009
0.333949
0.333921
0.333927
0.333967
0.334043
0.334154
0.334302
0.334488
0.334712
0.334976
0.335278
0.335621
0.336003
0.336426
0.336887
0.337386
0.33792
0.338487
0.339083
0.339702
0.340339
0.340986
0.341636
0.342277
0.342896
0.343482
0.344017
0.344491
0.344893
0.345208
0.345425
0.345541
0.345556
0.345482
0.345327
0.345106
0.344871
0.344653
0.344544
0.344554
0.344591
0.344884
0.345572
0.346505
0.347808
0.350099
0.353988
0.358995
0.335403
0.337391
0.338897
0.340018
0.340778
0.341214
0.341394
0.341378
0.341215
0.340945
0.340598
0.340198
0.339765
0.339313
0.338852
0.338392
0.337939
0.337497
0.337071
0.336664
0.336277
0.335912
0.335571
0.335255
0.334964
0.334699
0.33446
0.334248
0.334064
0.333908
0.33378
0.333681
0.333611
0.333572
0.333565
0.333589
0.333646
0.333737
0.333863
0.334025
0.334223
0.334459
0.334733
0.335045
0.335397
0.335787
0.336217
0.336684
0.337189
0.337729
0.338301
0.338902
0.339527
0.340173
0.340832
0.341497
0.34216
0.342812
0.343443
0.344047
0.344616
0.345143
0.345624
0.34606
0.346456
0.346824
0.347179
0.347551
0.347977
0.348495
0.349171
0.350056
0.351102
0.352362
0.353989
0.356075
0.358632
0.361767
0.365773
0.370648
0.335749
0.337274
0.338504
0.339426
0.34003
0.340372
0.340516
0.340501
0.340363
0.340131
0.33983
0.339481
0.339098
0.338694
0.33828
0.337862
0.337448
0.337041
0.336646
0.336266
0.335903
0.335558
0.335234
0.334932
0.334651
0.334394
0.334161
0.333952
0.333768
0.333609
0.333477
0.333372
0.333294
0.333245
0.333225
0.333235
0.333276
0.333349
0.333456
0.333597
0.333774
0.333987
0.334237
0.334526
0.334853
0.33522
0.335626
0.336072
0.336556
0.337079
0.337639
0.338233
0.33886
0.339515
0.340195
0.340896
0.341611
0.342336
0.343066
0.343796
0.344522
0.345242
0.345956
0.346668
0.347384
0.348115
0.348879
0.349698
0.3506
0.351619
0.352792
0.354154
0.355733
0.357608
0.35983
0.362404
0.36533
0.368576
0.372106
0.3759
0.336672
0.337672
0.338531
0.339201
0.339639
0.339874
0.339955
0.339911
0.339766
0.339544
0.339262
0.338937
0.338583
0.338208
0.337823
0.337434
0.337046
0.336663
0.33629
0.335929
0.335583
0.335253
0.334941
0.334648
0.334375
0.334123
0.333892
0.333685
0.3335
0.333339
0.333202
0.33309
0.333005
0.332946
0.332914
0.332912
0.332939
0.332997
0.333088
0.333211
0.33337
0.333565
0.333797
0.334067
0.334376
0.334725
0.335115
0.335546
0.336019
0.336534
0.33709
0.337686
0.338322
0.338995
0.339704
0.340445
0.341216
0.342014
0.342837
0.343682
0.344549
0.345437
0.346348
0.347286
0.348258
0.349276
0.350353
0.351508
0.352764
0.354148
0.355694
0.357443
0.359419
0.361561
0.363821
0.366242
0.368865
0.371675
0.374661
0.377879
0.337667
0.338291
0.338831
0.339255
0.339529
0.339653
0.339656
0.339562
0.33939
0.339155
0.338872
0.338554
0.33821
0.33785
0.33748
0.337107
0.336734
0.336367
0.336007
0.335658
0.335323
0.335002
0.334697
0.33441
0.334141
0.333892
0.333662
0.333454
0.333267
0.333102
0.332961
0.332843
0.332749
0.332681
0.33264
0.332626
0.332641
0.332686
0.332762
0.332872
0.333016
0.333196
0.333413
0.333669
0.333964
0.334301
0.334681
0.335104
0.335572
0.336084
0.336643
0.337247
0.337897
0.338592
0.339332
0.340115
0.340941
0.341807
0.342714
0.343661
0.344647
0.345674
0.346744
0.347861
0.34903
0.35026
0.351562
0.352949
0.354436
0.356045
0.357808
0.359757
0.361829
0.363924
0.366039
0.368268
0.370667
0.37321
0.375883
0.378683
0.338596
0.338965
0.339268
0.339492
0.339617
0.339637
0.339559
0.339407
0.339195
0.338935
0.338637
0.338311
0.337966
0.337609
0.337244
0.336876
0.336511
0.33615
0.335797
0.335454
0.335124
0.334807
0.334506
0.334221
0.333954
0.333705
0.333475
0.333264
0.333074
0.332906
0.332759
0.332634
0.332533
0.332457
0.332406
0.332382
0.332386
0.332419
0.332484
0.332581
0.332713
0.332881
0.333086
0.333332
0.333618
0.333947
0.33432
0.334739
0.335205
0.33572
0.336285
0.3369
0.337567
0.338286
0.339057
0.33988
0.340755
0.341682
0.342661
0.343692
0.344776
0.345913
0.347107
0.348358
0.349672
0.351053
0.352507
0.354042
0.355667
0.357398
0.359257
0.361228
0.363204
0.365184
0.36724
0.36938
0.371604
0.373913
0.376309
0.378772
0.339472
0.33966
0.339791
0.339861
0.339852
0.339771
0.339618
0.339403
0.339144
0.33885
0.33853
0.338189
0.337834
0.337471
0.337103
0.336735
0.33637
0.33601
0.335659
0.335317
0.334988
0.334672
0.334371
0.334086
0.333818
0.333567
0.333334
0.333121
0.332927
0.332753
0.3326
0.332469
0.332361
0.332276
0.332216
0.332183
0.332177
0.3322
0.332254
0.332341
0.332463
0.332621
0.332817
0.333054
0.333333
0.333657
0.334027
0.334444
0.334912
0.335432
0.336005
0.336633
0.337317
0.338058
0.338858
0.339717
0.340634
0.341612
0.34265
0.343749
0.344908
0.346129
0.347413
0.348762
0.350175
0.351655
0.353205
0.354825
0.356521
0.358299
0.360166
0.362057
0.363944
0.365882
0.367878
0.369906
0.371966
0.374071
0.376228
0.378425
0.340249
0.340315
0.340331
0.340294
0.340192
0.340021
0.339791
0.339513
0.339205
0.338875
0.338528
0.338168
0.337799
0.337425
0.33705
0.336677
0.336308
0.335945
0.33559
0.335246
0.334915
0.334597
0.334294
0.334007
0.333735
0.333481
0.333245
0.333027
0.332829
0.332649
0.33249
0.332352
0.332237
0.332144
0.332075
0.332033
0.332017
0.332031
0.332076
0.332154
0.332266
0.332416
0.332605
0.332835
0.333109
0.333429
0.333797
0.334215
0.334686
0.335211
0.335793
0.336433
0.337133
0.337895
0.33872
0.339608
0.340561
0.341579
0.342663
0.343812
0.345027
0.346309
0.347656
0.349069
0.350546
0.352087
0.353689
0.355352
0.357074
0.358856
0.360679
0.362491
0.364323
0.366219
0.36814
0.370061
0.371982
0.373924
0.375902
0.377914
0.340896
0.340891
0.340836
0.340733
0.340574
0.340344
0.340048
0.339712
0.339355
0.33899
0.338616
0.338235
0.33785
0.337464
0.33708
0.336699
0.336323
0.335954
0.335595
0.335246
0.33491
0.334589
0.334281
0.333989
0.333714
0.333455
0.333214
0.332991
0.332786
0.332601
0.332435
0.33229
0.332166
0.332065
0.331987
0.331936
0.331911
0.331916
0.331952
0.332021
0.332125
0.332268
0.33245
0.332675
0.332945
0.333262
0.333629
0.334048
0.334521
0.335052
0.335642
0.336293
0.337007
0.337786
0.338631
0.339543
0.340524
0.341572
0.342689
0.343875
0.345128
0.346449
0.347838
0.34929
0.350804
0.352375
0.354002
0.35568
0.357404
0.359163
0.360916
0.362664
0.364462
0.366308
0.368162
0.369996
0.371812
0.373633
0.375489
0.377391
0.341422
0.34138
0.341286
0.341144
0.340952
0.340694
0.340354
0.339967
0.339573
0.339179
0.338782
0.338383
0.337984
0.337586
0.337191
0.336802
0.336419
0.336045
0.335681
0.335327
0.334986
0.334657
0.334343
0.334044
0.333762
0.333496
0.333249
0.333019
0.332808
0.332615
0.332442
0.332288
0.332155
0.332045
0.331958
0.331897
0.331863
0.331858
0.331885
0.331946
0.332042
0.332178
0.332354
0.332573
0.332839
0.333154
0.33352
0.33394
0.334416
0.334952
0.335549
0.336209
0.336934
0.337727
0.338588
0.339518
0.340518
0.341588
0.342728
0.343937
0.345215
0.34656
0.347973
0.349449
0.35098
0.352561
0.354193
0.355867
0.35756
0.359255
0.360942
0.362656
0.364426
0.366229
0.368028
0.369801
0.371542
0.373279
0.375057
0.376879
0.341852
0.341797
0.341684
0.341522
0.341313
0.341028
0.340655
0.340244
0.339833
0.339423
0.339011
0.338599
0.338188
0.33778
0.337377
0.336981
0.336593
0.336215
0.335847
0.335491
0.335145
0.33481
0.334489
0.334182
0.333892
0.333618
0.333361
0.333123
0.332904
0.332704
0.332521
0.332357
0.332213
0.332091
0.331993
0.331921
0.331877
0.331862
0.331879
0.331931
0.332019
0.332147
0.332316
0.332531
0.332793
0.333105
0.33347
0.333891
0.33437
0.33491
0.335512
0.33618
0.336916
0.337719
0.338593
0.339536
0.340551
0.341635