/*--------------------------------*- C++ -*----------------------------------*\
| =========                 |                                                 |
| \\      /  F ield         | OpenFOAM: The Open Source CFD Toolbox           |
|  \\    /   O peration     | Version:  v2012                                 |
|   \\  /    A nd           | Website:  www.openfoam.com                      |
|    \\/     M anipulation  |                                                 |
\*---------------------------------------------------------------------------*/
FoamFile
{
    version     2.0;
    format      ascii;
    class       surfaceScalarField;
    location    "597";
    object      phi;
}
// * * * * * * * * * * * * * * * * * * * * * * * * * * * * * * * * * * * * * //

dimensions      [0 3 -1 0 0 0 0];
oriented        oriented;


internalField   nonuniform List<scalar> 
12946
(
6.27513e-08
0.000199937
4.16843e-08
0.000200021
2.47869e-08
0.000200017
1.16078e-08
0.000200013
3.69017e-11
0.000200012
-1.154e-08
0.000200012
-2.4736e-08
0.000200013
-4.16596e-08
0.000200017
-6.2744e-08
0.000200021
0.000199937
9.93254e-08
0.000199838
8.70756e-08
0.000200033
5.85479e-08
0.000200045
2.89071e-08
0.000200043
1.11182e-10
0.00020004
-2.87016e-08
0.00020004
-5.83923e-08
0.000200043
-8.69969e-08
0.000200046
-9.93098e-08
0.000200033
0.000199838
1.01758e-07
0.000199736
1.01916e-07
0.000200033
7.38223e-08
0.000200074
3.79396e-08
0.000200079
2.12193e-10
0.000200078
-3.75379e-08
0.000200078
-7.34805e-08
0.000200079
-1.01645e-07
0.000200074
-1.01601e-07
0.000200033
0.000199736
9.85999e-08
0.000199638
1.02814e-07
0.000200029
7.75651e-08
0.000200099
4.10416e-08
0.000200115
3.54447e-10
0.000200119
-4.03668e-08
0.000200119
-7.69864e-08
0.000200115
-1.02391e-07
0.000200099
-9.83664e-08
0.000200029
0.000199638
9.46017e-08
0.000199543
1.00191e-07
0.000200023
7.7011e-08
0.000200122
4.13277e-08
0.000200151
5.58446e-10
0.00020016
-4.0262e-08
0.00020016
-7.60946e-08
0.000200151
-9.95189e-08
0.000200123
-9.42386e-08
0.000200024
0.000199544
8.96542e-08
0.000199453
9.59768e-08
0.000200017
7.48956e-08
0.000200143
4.05766e-08
0.000200185
8.52255e-10
0.000200199
-3.89544e-08
0.000200199
-7.35123e-08
0.000200186
-9.49526e-08
0.000200144
-8.90961e-08
0.000200018
0.000199455
8.47878e-08
0.000199369
9.11157e-08
0.000200011
7.13941e-08
0.000200163
3.90902e-08
0.000200218
1.29284e-09
0.000200237
-3.66308e-08
0.000200237
-6.92985e-08
0.000200219
-8.95702e-08
0.000200164
-8.39401e-08
0.000200013
0.000199371
8.04777e-08
0.000199288
8.64891e-08
0.000200005
6.79577e-08
0.000200181
3.76121e-08
0.000200248
1.96602e-09
0.000200273
-3.38676e-08
0.000200273
-6.4756e-08
0.000200249
-8.41355e-08
0.000200184
-7.91888e-08
0.000200008
0.000199292
7.69043e-08
0.000199211
8.26254e-08
0.000199999
6.52249e-08
0.000200199
3.66361e-08
0.000200276
2.98521e-09
0.000200306
-3.09472e-08
0.000200307
-6.03562e-08
0.000200279
-7.90498e-08
0.000200202
-7.49446e-08
0.000200004
0.000199217
7.41188e-08
0.000199137
7.97242e-08
0.000199993
6.33895e-08
0.000200215
3.63967e-08
0.000200303
4.51768e-09
0.000200338
-2.77865e-08
0.000200339
-5.60198e-08
0.000200307
-7.43103e-08
0.000200221
-7.11493e-08
0.0002
0.000199145
7.2141e-08
0.000199065
7.79138e-08
0.000199988
6.26496e-08
0.00020023
3.71366e-08
0.000200329
6.8175e-09
0.000200369
-2.4145e-08
0.00020037
-5.15266e-08
0.000200334
-6.97226e-08
0.000200239
-6.76445e-08
0.000199998
0.000199078
7.10442e-08
0.000198994
7.74045e-08
0.000199981
6.32894e-08
0.000200244
3.92089e-08
0.000200353
1.02709e-08
0.000200398
-1.96396e-08
0.0002004
-4.65229e-08
0.000200361
-6.49774e-08
0.000200257
-6.42192e-08
0.000199998
0.000199014
7.09908e-08
0.000198923
7.84974e-08
0.000199974
6.57826e-08
0.000200257
4.317e-08
0.000200376
1.54763e-08
0.000200425
-1.36861e-08
0.00020043
-4.04898e-08
0.000200388
-5.96618e-08
0.000200276
-6.06216e-08
0.000199998
0.000198953
7.20019e-08
0.000198851
8.12697e-08
0.000199964
7.06122e-08
0.000200268
4.98243e-08
0.000200396
2.33273e-08
0.000200452
-5.42995e-09
0.000200458
-3.27011e-08
0.000200415
-5.32391e-08
0.000200297
-5.65511e-08
0.000200002
0.000198896
7.4604e-08
0.000198776
8.68305e-08
0.000199952
7.90268e-08
0.000200276
6.04513e-08
0.000200415
3.51765e-08
0.000200477
6.39707e-09
0.000200487
-2.21153e-08
0.000200444
-4.49986e-08
0.00020032
-5.16647e-08
0.000200008
0.000198845
7.93825e-08
0.000198697
9.61896e-08
0.000199935
9.23618e-08
0.000200279
7.66509e-08
0.000200431
5.27719e-08
0.000200501
2.39284e-08
0.000200516
-7.02185e-09
0.000200475
-3.40391e-08
0.000200347
-4.56733e-08
0.00020002
0.000198799
8.71819e-08
0.00019861
1.1098e-07
0.000199912
1.13139e-07
0.000200277
1.01712e-07
0.000200442
7.9928e-08
0.000200523
4.98969e-08
0.000200546
1.47297e-08
0.00020051
-1.93349e-08
0.000200381
-3.8737e-08
0.000200039
0.00019876
9.9123e-08
0.000198511
1.33377e-07
0.000199877
1.44525e-07
0.000200266
1.3989e-07
0.000200447
1.21418e-07
0.000200541
8.94128e-08
0.000200578
4.65634e-08
0.000200553
-1.1355e-09
0.000200429
-3.37223e-08
0.000200072
0.000198727
1.16673e-07
0.000198394
1.66452e-07
0.000199828
1.9129e-07
0.000200241
1.97503e-07
0.000200441
1.85234e-07
0.000200553
1.53198e-07
0.00020061
1.00414e-07
0.000200606
3.47102e-08
0.000200494
-2.53516e-08
0.000200132
0.000198701
1.41309e-07
0.000198253
2.13739e-07
0.000199755
2.59125e-07
0.000200196
2.82718e-07
0.000200417
2.82359e-07
0.000200554
2.52126e-07
0.00020064
1.7847e-07
0.000200679
4.91386e-08
0.000200624
-1.42529e-07
0.000200324
0.000198559
1.70074e-07
0.000198082
2.70516e-07
0.000199655
3.43841e-07
0.000200123
3.95272e-07
0.000200366
4.23533e-07
0.000200525
4.26059e-07
0.000200638
4.01436e-07
0.000200704
3.50285e-07
0.000200675
5.90055e-07
0.000200084
0.000194111
5.03748e-06
2.12386e-07
0.00019787
3.52282e-07
0.000199515
4.65018e-07
0.00020001
5.56831e-07
0.000200274
6.27955e-07
0.000200454
6.81541e-07
0.000200584
7.39087e-07
0.000200646
8.60094e-07
0.000200554
1.14998e-06
0.000199794
0.000192033
3.22796e-06
2.64396e-07
0.000197606
4.53673e-07
0.000199326
6.15616e-07
0.000199848
7.57692e-07
0.000200132
8.81489e-07
0.000200331
9.90754e-07
0.000200475
1.10356e-06
0.000200534
1.3124e-06
0.000200345
1.93579e-06
0.000199171
0.000188946
5.02327e-06
3.26128e-07
0.00019728
5.74442e-07
0.000199077
7.95012e-07
0.000199627
9.96537e-07
0.00019993
1.18257e-06
0.000200145
1.36124e-06
0.000200296
1.56297e-06
0.000200332
1.91398e-06
0.000199994
2.85059e-06
0.000198234
0.000185519
6.27696e-06
3.98016e-07
0.000196882
7.15217e-07
0.00019876
1.00409e-06
0.000199338
1.27478e-06
0.000199659
1.53318e-06
0.000199886
1.79306e-06
0.000200036
2.09641e-06
0.000200028
2.5834e-06
0.000199507
3.73423e-06
0.000197083
0.000182077
7.1766e-06
4.80757e-07
0.000196401
8.76894e-07
0.000198364
1.24384e-06
0.000198971
1.59312e-06
0.00019931
1.9326e-06
0.000199547
2.28058e-06
0.000199688
2.68828e-06
0.000199621
3.31213e-06
0.000198883
4.69513e-06
0.0001957
0.000178712
8.06003e-06
5.75921e-07
0.000195825
1.06093e-06
0.000197879
1.51593e-06
0.000198516
1.95341e-06
0.000198873
2.38301e-06
0.000199117
2.82736e-06
0.000199244
3.3468e-06
0.000199101
4.11204e-06
0.000198118
5.6906e-06
0.000194122
0.000175562
8.84115e-06
7.08623e-07
0.000195116
1.31812e-06
0.000197269
1.89468e-06
0.00019794
2.45224e-06
0.000198315
3.00299e-06
0.000198566
3.57466e-06
0.000198672
4.23776e-06
0.000198438
5.17391e-06
0.000197182
6.9327e-06
0.000192363
0.000172524
9.9704e-06
8.39357e-07
0.000194277
1.57016e-06
0.000196539
2.26845e-06
0.000197242
2.94629e-06
0.000197637
3.61814e-06
0.000197894
4.31623e-06
0.000197974
5.12112e-06
0.000197633
6.22651e-06
0.000196076
8.11806e-06
0.000190471
0.00016976
1.08817e-05
9.8754e-07
0.000193289
1.85833e-06
0.000195668
2.69309e-06
0.000196407
3.50642e-06
0.000196824
4.31365e-06
0.000197087
5.15013e-06
0.000197138
6.10204e-06
0.000196681
7.36851e-06
0.00019481
9.37199e-06
0.000188468
0.00016729
1.18427e-05
1.15421e-06
0.000192135
2.18847e-06
0.000194634
3.17775e-06
0.000195418
4.14292e-06
0.000195859
5.10001e-06
0.00019613
6.08555e-06
0.000196152
7.18575e-06
0.000195581
8.59073e-06
0.000193405
1.06509e-05
0.000186408
0.000165174
1.2767e-05
1.34753e-06
0.000190788
2.56539e-06
0.000193416
3.73174e-06
0.000194251
4.86895e-06
0.000194722
5.99357e-06
0.000195005
7.1417e-06
0.000195004
8.39592e-06
0.000194327
9.92877e-06
0.000191872
1.19961e-05
0.00018434
0.000163448
1.37213e-05
1.57065e-06
0.000189217
2.99792e-06
0.000191988
4.36743e-06
0.000192882
5.70186e-06
0.000193387
7.0175e-06
0.00019369
8.34864e-06
0.000193673
9.77108e-06
0.000192905
1.14361e-05
0.000190207
1.34729e-05
0.000182304
0.000162077
1.48446e-05
1.82772e-06
0.000187389
3.49618e-06
0.00019032
5.09973e-06
0.000191278
6.66197e-06
0.000191825
8.19827e-06
0.000192154
9.73981e-06
0.000192131
1.13528e-05
0.000191292
1.31538e-05
0.000188406
1.51331e-05
0.000180324
0.000161007
1.62025e-05
2.1237e-06
0.000185266
4.07034e-06
0.000188373
5.94398e-06
0.000189405
7.77011e-06
0.000189999
9.5629e-06
0.000190361
1.13489e-05
0.000190345
1.31804e-05
0.00018946
1.51258e-05
0.000186461
1.7058e-05
0.000178392
0.000160176
1.78892e-05
2.46335e-06
0.000182802
4.72986e-06
0.000186107
6.91454e-06
0.00018722
9.04582e-06
0.000187868
1.11367e-05
0.00018827
1.32076e-05
0.000188274
1.52929e-05
0.000187375
1.74084e-05
0.000184345
1.93302e-05
0.00017647
0.000159505
2.00012e-05
2.85065e-06
0.000179952
5.48289e-06
0.000183475
8.02374e-06
0.000184679
1.05059e-05
0.000185385
1.29413e-05
0.000185834
1.53435e-05
0.000185872
1.77262e-05
0.000184992
2.00543e-05
0.000182017
2.20246e-05
0.0001745
0.000158901
2.26284e-05
3.28855e-06
0.000176663
6.33557e-06
0.000180428
9.28079e-06
0.000181734
1.21626e-05
0.000182504
1.49927e-05
0.000183004
1.77773e-05
0.000183088
2.05091e-05
0.00018226
2.31056e-05
0.000179421
2.52034e-05
0.000172402
0.000158256
2.58488e-05
3.7786e-06
0.000172884
7.29135e-06
0.000176915
1.06907e-05
0.000178334
1.40224e-05
0.000179172
1.72989e-05
0.000179728
2.05197e-05
0.000179867
2.36577e-05
0.000179122
2.65899e-05
0.000176488
2.89107e-05
0.000170081
0.000157444
2.97226e-05
4.32175e-06
0.000168563
8.3505e-06
0.000172886
1.22533e-05
0.000174432
1.60843e-05
0.000175341
1.98581e-05
0.000175954
2.35689e-05
0.000176156
2.71727e-05
0.000175519
3.05154e-05
0.000173146
3.3167e-05
0.00016743
0.000156326
3.42851e-05
4.91892e-06
0.000163644
9.5102e-06
0.000168295
1.3963e-05
0.000169979
1.83394e-05
0.000170964
2.26576e-05
0.000171636
2.69088e-05
0.000171905
3.10368e-05
0.000171391
3.48669e-05
0.000169316
3.79626e-05
0.000164334
0.000154752
3.9536e-05
5.56861e-06
0.000158075
1.07651e-05
0.000163098
1.58094e-05
0.000164935
2.07712e-05
0.000166003
2.56739e-05
0.000166733
3.05087e-05
0.00016707
3.52126e-05
0.000166687
3.96025e-05
0.000164926
4.32523e-05
0.000160684
0.000152574
4.54309e-05
6.26691e-06
0.000151808
1.21078e-05
0.000157257
1.77779e-05
0.000159264
2.33565e-05
0.000160424
2.88736e-05
0.000161216
3.43237e-05
0.00016162
3.96437e-05
0.000161367
4.46533e-05
0.000159916
4.8953e-05
0.000156385
0.000149653
5.18742e-05
7.01003e-06
0.000144798
1.35292e-05
0.000150738
1.98512e-05
0.000152942
2.60671e-05
0.000154208
3.22156e-05
0.000155068
3.82978e-05
0.000155538
4.42567e-05
0.000155408
4.99258e-05
0.000154247
5.49454e-05
0.000151365
0.000145879
5.87185e-05
7.79524e-06
0.000137003
1.50206e-05
0.000143513
2.2011e-05
0.000145952
2.88724e-05
0.000147347
3.56543e-05
0.000148286
4.23674e-05
0.000148825
4.89667e-05
0.000148808
5.53084e-05
0.000147905
6.10827e-05
0.000145591
0.000141189
6.57734e-05
8.62182e-06
0.000128381
1.65757e-05
0.000135559
2.4241e-05
0.000138287
3.17428e-05
0.000139845
3.91434e-05
0.000140885
4.64669e-05
0.000141501
5.36847e-05
0.000141591
6.06816e-05
0.000140908
6.72038e-05
0.000139068
0.00013557
7.28227e-05
9.49213e-06
0.000118889
1.81927e-05
0.000126858
2.65291e-05
0.00012995
3.46518e-05
0.000131722
4.264e-05
0.000132897
5.05338e-05
0.000133607
5.83244e-05
0.0001338
6.59288e-05
0.000133304
7.31508e-05
0.000131846
0.00012907
7.96504e-05
1.04128e-05
0.000108476
1.98755e-05
0.000117396
2.88685e-05
0.000120957
3.75779e-05
0.000123013
4.61056e-05
0.000124369
5.45113e-05
0.000125202
6.28084e-05
0.000125503
7.09466e-05
0.000125166
7.87847e-05
0.000124008
0.000121789
8.60662e-05
1.13963e-05
9.70798e-05
2.16348e-05
0.000107157
3.1257e-05
0.000111335
4.05023e-05
0.000113768
4.95049e-05
0.000115367
5.83482e-05
0.000116358
6.70694e-05
0.000116782
7.56493e-05
0.000116586
8.39956e-05
0.000115662
0.000113859
9.19255e-05
1.24624e-05
8.46174e-05
2.34851e-05
9.61347e-05
3.36915e-05
0.000101128
4.34027e-05
0.000104057
5.2799e-05
0.00010597
6.19927e-05
0.000107165
7.10455e-05
0.000107729
7.99663e-05
0.000107665
8.87035e-05
0.000106925
0.000105428
9.71342e-05
1.36436e-05
7.09738e-05
2.54362e-05
8.43421e-05
3.61539e-05
9.04108e-05
4.62379e-05
9.39726e-05
5.59304e-05
9.62777e-05
6.53782e-05
9.77168e-05
7.46673e-05
9.84398e-05
8.38306e-05
9.85018e-05
9.28469e-05
9.79084e-05
9.66365e-05
0.000101639
1.49922e-05
5.59816e-05
2.74474e-05
7.18868e-05
3.85748e-05
7.92834e-05
4.89234e-05
8.3624e-05
5.88028e-05
8.63984e-05
6.84044e-05
8.81152e-05
7.78396e-05
8.90046e-05
8.7159e-05
8.91824e-05
9.63621e-05
8.87053e-05
8.75979e-05
0.000105401
1.65125e-05
3.94692e-05
2.94256e-05
5.89737e-05
4.07834e-05
6.79256e-05
5.12617e-05
7.31457e-05
6.12244e-05
7.64356e-05
7.08968e-05
7.84428e-05
8.04095e-05
7.9492e-05
8.98248e-05
7.97671e-05
9.91538e-05
7.93764e-05
7.83867e-05
0.000108365
1.68895e-05
2.25796e-05
3.08933e-05
4.49699e-05
4.25311e-05
5.62878e-05
5.30015e-05
6.26753e-05
6.29247e-05
6.65124e-05
7.25908e-05
6.87766e-05
8.21377e-05
6.99451e-05
9.16246e-05
7.02802e-05
0.000101062
6.99394e-05
6.90262e-05
0.000110422
1.42536e-05
8.32607e-06
2.97188e-05
2.95047e-05
4.24598e-05
4.35467e-05
5.33546e-05
5.17805e-05
6.33793e-05
5.64877e-05
7.307e-05
5.9086e-05
8.26652e-05
6.03499e-05
9.22489e-05
6.06964e-05
0.000101829
6.03592e-05
5.94816e-05
0.000111374
9.42343e-06
-1.09736e-06
2.43877e-05
1.45404e-05
3.83872e-05
2.95473e-05
5.05048e-05
3.9663e-05
6.13114e-05
4.56811e-05
7.14519e-05
4.89455e-05
8.13456e-05
5.04562e-05
9.11909e-05
5.08512e-05
0.000101042
5.05082e-05
4.9646e-05
0.000110877
5.52409e-06
-6.62144e-06
1.66326e-05
3.43193e-06
2.98723e-05
1.63075e-05
4.2823e-05
2.67123e-05
5.48612e-05
3.36429e-05
6.61149e-05
3.76917e-05
7.6902e-05
3.96691e-05
8.74642e-05
4.0289e-05
9.79186e-05
4.00538e-05
3.92692e-05
0.000108295
2.54792e-06
-9.16936e-06
8.66e-06
-2.68015e-06
1.85404e-05
6.42709e-06
3.03433e-05
1.49095e-05
4.27859e-05
2.12003e-05
5.52137e-05
2.5264e-05
6.73975e-05
2.74853e-05
7.92916e-05
2.83948e-05
9.09206e-05
2.84249e-05
2.78523e-05
0.000102338
-1.89127e-06
-7.27809e-06
-2.09672e-07
-4.36175e-06
5.5714e-06
6.46014e-07
1.46047e-05
5.87622e-06
2.59948e-05
9.81009e-06
3.87679e-05
1.24909e-05
5.21784e-05
1.40748e-05
6.56029e-05
1.49702e-05
7.8799e-05
1.52288e-05
1.48771e-05
9.17743e-05
-7.27809e-06
-1.16398e-05
-1.09938e-05
-5.11761e-06
4.69247e-06
1.71834e-05
3.12582e-05
4.62284e-05
6.14572e-05
7.63343e-05
-2.75488e-05
3.25862e-05
-2.47762e-05
-2.77257e-06
-1.91442e-05
-5.63202e-06
-1.26924e-05
-6.45179e-06
-5.77081e-06
-6.92157e-06
1.0834e-06
-6.85421e-06
7.60595e-06
-6.52255e-06
1.37359e-05
-6.12999e-06
1.9271e-05
-5.53506e-06
2.39808e-05
-4.7098e-06
2.77168e-05
-3.73595e-06
3.0513e-05
-2.79623e-06
3.24263e-05
-1.91328e-06
3.35566e-05
-1.13033e-06
3.39627e-05
-4.06118e-07
3.36353e-05
3.27461e-07
3.25501e-05
1.08518e-06
3.0643e-05
1.90711e-06
2.78424e-05
2.80058e-06
2.40565e-05
3.78589e-06
1.92464e-05
4.81006e-06
1.35396e-05
5.70683e-06
7.55877e-06
5.98083e-06
2.56954e-06
4.98922e-06
2.56954e-06
-1.3663e-05
4.94772e-05
-1.83741e-05
1.93856e-06
-1.68429e-05
-7.16327e-06
-1.30671e-05
-1.02275e-05
-8.10964e-06
-1.18791e-05
-2.43084e-06
-1.2533e-05
3.4301e-06
-1.23835e-05
8.89827e-06
-1.15982e-05
1.36612e-05
-1.0298e-05
1.76331e-05
-8.68165e-06
2.08561e-05
-6.95892e-06
2.33271e-05
-5.26727e-06
2.5091e-05
-3.6772e-06
2.62057e-05
-2.24501e-06
2.67471e-05
-9.47502e-07
2.67951e-05
2.79458e-07
2.63722e-05
1.50804e-06
2.54709e-05
2.80843e-06
2.40316e-05
4.23988e-06
2.19768e-05
5.84071e-06
1.92e-05
7.5868e-06
1.55887e-05
9.3182e-06
1.09843e-05
1.05852e-05
5.55952e-06
1.0414e-05
8.12906e-06
-8.38503e-06
6.28855e-05
-1.50748e-05
8.62835e-06
-1.58932e-05
-6.34485e-06
-1.37919e-05
-1.23289e-05
-1.0092e-05
-1.55789e-05
-5.52469e-06
-1.71004e-05
-5.79093e-07
-1.73291e-05
4.23496e-06
-1.64122e-05
8.51638e-06
-1.45794e-05
1.20842e-05
-1.22494e-05
1.48876e-05
-9.76236e-06
1.69685e-05
-7.34816e-06
1.84471e-05
-5.1558e-06
1.94175e-05
-3.21543e-06
1.99366e-05
-1.46653e-06
2.00407e-05
1.75279e-07
1.97582e-05
1.79056e-06
1.91095e-05
3.45714e-06
1.81048e-05
5.24454e-06
1.67338e-05
7.21176e-06
1.49375e-05
9.38307e-06
1.25842e-05
1.16715e-05
9.44794e-06
1.37215e-05
5.28349e-06
1.45784e-05
1.34125e-05
-6.01239e-06
7.51748e-05
-1.40304e-05
1.66464e-05
-1.63348e-05
-4.04043e-06
-1.52655e-05
-1.33982e-05
-1.23291e-05
-1.85153e-05
-8.499e-06
-2.09305e-05
-4.42692e-06
-2.14012e-05
-4.79921e-07
-2.03592e-05
3.09737e-06
-1.81567e-05
6.12855e-06
-1.52806e-05
8.53832e-06
-1.21721e-05
1.03705e-05
-9.18031e-06
1.17239e-05
-6.5092e-06
1.26727e-05
-4.16421e-06
1.32577e-05
-2.05162e-06
1.3497e-05
-6.39473e-08
1.34069e-05
1.88063e-06
1.3008e-05
3.85608e-06
1.2327e-05
5.92548e-06
1.1388e-05
8.15077e-06
1.01893e-05
1.05817e-05
8.66854e-06
1.31923e-05
6.66549e-06
1.57246e-05
3.90713e-06
1.73368e-05
1.73197e-05
-3.26328e-06
8.56147e-05
-1.27447e-05
2.61278e-05
-1.65185e-05
-2.66643e-07
-1.65593e-05
-1.33574e-05
-1.451e-05
-2.05646e-05
-1.14687e-05
-2.39718e-05
-8.17291e-06
-2.46969e-05
-4.99411e-06
-2.3538e-05
-2.12016e-06
-2.10307e-05
3.63186e-07
-1.7764e-05
2.40094e-06
-1.42099e-05
4.01587e-06
-1.07952e-05
5.26057e-06
-7.75389e-06
6.18848e-06
-5.09213e-06
6.83189e-06
-2.69503e-06
7.20288e-06
-4.34936e-07
7.30973e-06
1.77378e-06
7.17137e-06
3.99444e-06
6.81676e-06
6.28009e-06
6.28173e-06
8.6858e-06
5.59797e-06
1.12655e-05
4.76695e-06
1.40233e-05
3.70403e-06
1.67875e-05
2.09758e-06
1.89432e-05
1.94173e-05
-3.27009e-07
9.40018e-05
-1.01336e-05
3.59344e-05
-1.53577e-05
4.95738e-06
-1.67957e-05
-1.19194e-05
-1.59807e-05
-2.13796e-05
-1.40526e-05
-2.58999e-05
-1.16876e-05
-2.7062e-05
-9.21128e-06
-2.60143e-05
-6.90164e-06
-2.33403e-05
-4.84801e-06
-1.98176e-05
-3.11004e-06
-1.59478e-05
-1.71497e-06
-1.21903e-05
-6.29214e-07
-8.83965e-06
2.10348e-07
-5.93169e-06
8.38837e-07
-3.32352e-06
1.26911e-06
-8.65211e-07
1.51005e-06
1.53284e-06
1.58444e-06
3.92006e-06
1.52404e-06
6.3405e-06
1.36998e-06
8.83986e-06
1.17437e-06
1.14611e-05
1.00507e-06
1.41926e-05
8.95488e-07
1.68971e-05
6.11006e-07
1.92277e-05
2.00283e-05
2.31858e-06
0.000100524
-6.75367e-06
4.50067e-05
-1.29969e-05
1.12006e-05
-1.5967e-05
-8.94934e-06
-1.66409e-05
-2.07057e-05
-1.59449e-05
-2.65958e-05
-1.4678e-05
-2.8329e-05
-1.30459e-05
-2.76464e-05
-1.13365e-05
-2.50496e-05
-9.6749e-06
-2.14793e-05
-8.17636e-06
-1.74464e-05
-6.94446e-06
-1.34222e-05
-5.99754e-06
-9.78657e-06
-5.28083e-06
-6.6484e-06
-4.73025e-06
-3.87409e-06
-4.31005e-06
-1.28542e-06
-4.0035e-06
1.22629e-06
-3.78518e-06
3.70173e-06
-3.6137e-06
6.16902e-06
-3.43339e-06
8.65954e-06
-3.16898e-06
1.11967e-05
-2.70386e-06
1.37275e-05
-1.8405e-06
1.60337e-05
-5.34e-07
1.79212e-05
1.94943e-05
4.79015e-06
0.000105705
-3.56513e-06
5.3362e-05
-1.04781e-05
1.81136e-05
-1.49039e-05
-4.52353e-06
-1.71657e-05
-1.84438e-05
-1.7875e-05
-2.58865e-05
-1.77624e-05
-2.84416e-05
-1.71027e-05
-2.83062e-05
-1.61483e-05
-2.6004e-05
-1.49467e-05
-2.26809e-05
-1.36566e-05
-1.87365e-05
-1.24779e-05
-1.46009e-05
-1.15518e-05
-1.07127e-05
-1.08933e-05
-7.30691e-06
-1.04227e-05
-4.34469e-06
-1.00544e-05
-1.65365e-06
-9.74003e-06
9.11896e-07
-9.4471e-06
3.4088e-06
-9.1252e-06
5.84711e-06
-8.68993e-06
8.22428e-06
-7.99498e-06
1.05017e-05
-6.80553e-06
1.2538e-05
-4.67122e-06
1.38994e-05
-3.32868e-07
1.35829e-05
1.11572e-05
8.00411e-06
6.81578e-06
0.00010977
-6.07872e-07
6.07856e-05
-7.62363e-06
2.51293e-05
-1.29999e-05
8.52754e-07
-1.66071e-05
-1.48367e-05
-1.87795e-05
-2.3714e-05
-1.98947e-05
-2.73264e-05
-2.04762e-05
-2.77246e-05
-2.04978e-05
-2.59824e-05
-1.99972e-05
-2.31815e-05
-1.91074e-05
-1.96263e-05
-1.80459e-05
-1.56624e-05
-1.70678e-05
-1.16908e-05
-1.63384e-05
-8.03635e-06
-1.58652e-05
-4.81786e-06
-1.55484e-05
-1.97041e-06
-1.52741e-05
6.37521e-07
-1.49575e-05
3.09227e-06
-1.45226e-05
5.41223e-06
-1.38428e-05
7.54441e-06
-1.27186e-05
9.37754e-06
-1.0905e-05
1.07244e-05
-8.41917e-06
1.14136e-05
-6.46935e-06
1.16331e-05
1.32097e-05
-8.52178e-06
8.54313e-06
0.00011307
1.88852e-06
6.74402e-05
-5.08147e-06
3.20993e-05
-1.10995e-05
6.87083e-06
-1.57862e-05
-1.01501e-05
-1.92266e-05
-2.02736e-05
-2.16403e-05
-2.49126e-05
-2.3457e-05
-2.5908e-05
-2.45847e-05
-2.48547e-05
-2.50634e-05
-2.27028e-05
-2.49087e-05
-1.9781e-05
-2.42441e-05
-1.6327e-05
-2.33128e-05
-1.2622e-05
-2.2383e-05
-8.96623e-06
-2.16251e-05
-5.57573e-06
-2.1062e-05
-2.53351e-06
-2.06081e-05
1.83666e-07
-2.01551e-05
2.63928e-06
-1.96338e-05
4.89085e-06
-1.90392e-05
6.94985e-06
-1.85271e-05
8.86543e-06
-1.86064e-05
1.08037e-05
-2.03731e-05
1.31803e-05
-2.53617e-05
1.66217e-05
2.18232e-05
-3.39752e-05
1.00189e-05
0.000115818
4.00018e-06
7.34589e-05
-2.86143e-06
3.89609e-05
-9.31721e-06
1.33266e-05
-1.48555e-05
-4.61176e-06
-1.93527e-05
-1.57764e-05
-2.29504e-05
-2.1315e-05
-2.5866e-05
-2.29924e-05
-2.81534e-05
-2.25672e-05
-2.98025e-05
-2.10537e-05
-3.07764e-05
-1.88071e-05
-3.10711e-05
-1.60323e-05
-3.0792e-05
-1.29012e-05
-3.01518e-05
-9.60644e-06
-2.93974e-05
-6.33008e-06
-2.87436e-05
-3.18732e-06
-2.83228e-05
-2.37119e-07
-2.82172e-05
2.53365e-06
-2.85155e-05
5.18913e-06
-2.94281e-05
7.86248e-06
-3.13e-05
1.07373e-05
-3.45242e-05
1.40279e-05
-3.91351e-05
1.77912e-05
-4.43959e-05
2.18825e-05
2.57293e-05
-4.8302e-05
1.1334e-05
0.000118205
5.82383e-06
7.89692e-05
-8.86598e-07
4.56714e-05
-7.61168e-06
2.00517e-05
-1.37699e-05
1.5465e-06
-1.90883e-05
-1.0458e-05
-2.35852e-05
-1.68181e-05
-2.74294e-05
-1.91482e-05
-3.07321e-05
-1.92646e-05
-3.35026e-05
-1.82832e-05
-3.5739e-05
-1.65707e-05
-3.74127e-05
-1.43586e-05
-3.85204e-05
-1.17935e-05
-3.91578e-05
-8.96904e-06
-3.94835e-05
-6.00437e-06
-3.97244e-05
-2.94644e-06
-4.01371e-05
1.75591e-07
-4.09154e-05
3.31192e-06
-4.21915e-05
6.46524e-06
-4.40496e-05
9.72065e-06
-4.64148e-05
1.31025e-05
-4.89203e-05
1.65334e-05
-5.08381e-05
1.97091e-05
-5.12965e-05
2.23409e-05
2.4333e-05
-4.99002e-05
1.26678e-05
0.000120382
7.53561e-06
8.41014e-05
9.96153e-07
5.22108e-05
-5.85546e-06
2.69033e-05
-1.24005e-05
8.09156e-06
-1.82726e-05
-4.58597e-06
-2.3373e-05
-1.17177e-05
-2.78409e-05
-1.46803e-05
-3.1841e-05
-1.52645e-05
-3.54188e-05
-1.47055e-05
-3.85721e-05
-1.34174e-05
-4.13261e-05
-1.16046e-05
-4.36632e-05
-9.45645e-06
-4.5586e-05
-7.04618e-06
-4.7186e-05
-4.40436e-06
-4.85552e-05
-1.5773e-06
-4.97634e-05
1.38378e-06
-5.08696e-05
4.41812e-06
-5.18865e-05
7.48216e-06
-5.27245e-05
1.05587e-05
-5.31668e-05
1.35448e-05
-5.28882e-05
1.62547e-05
-5.17901e-05
1.86109e-05
-4.98759e-05
2.04268e-05
2.15554e-05
-4.70983e-05
1.41399e-05
0.000122445
9.30545e-06
8.89358e-05
2.95481e-06
5.85615e-05
-3.91022e-06
3.37683e-05
-1.06497e-05
1.4831e-05
-1.68334e-05
1.59776e-06
-2.22489e-05
-6.30213e-06
-2.69851e-05
-9.94414e-06
-3.12787e-05
-1.09708e-05
-3.52538e-05
-1.07304e-05
-3.88112e-05
-9.85999e-06
-4.19243e-05
-8.49149e-06
-4.4631e-05
-6.7498e-06
-4.69508e-05
-4.72635e-06
-4.88689e-05
-2.48629e-06
-5.03761e-05
-7.00973e-08
-5.14812e-05
2.48887e-06
-5.21961e-05
5.13307e-06
-5.25377e-05
7.82378e-06
-5.24421e-05
1.0463e-05
-5.17579e-05
1.28607e-05
-5.04113e-05
1.49081e-05
-4.84029e-05
1.66025e-05
-4.58524e-05
1.78763e-05
1.87294e-05
-4.30265e-05
1.5894e-05
0.00012444
1.13003e-05
9.35295e-05
5.14326e-06
6.47185e-05
-1.66028e-06
4.05719e-05
-8.47002e-06
2.16407e-05
-1.48031e-05
7.93086e-06
-2.03593e-05
-7.45991e-07
-2.51318e-05
-5.17157e-06
-2.93594e-05
-6.74319e-06
-3.32693e-05
-6.82047e-06
-3.68753e-05
-6.25402e-06
-4.00706e-05
-5.29623e-06
-4.2811e-05
-4.0094e-06
-4.50884e-05
-2.44893e-06
-4.69109e-05
-6.63768e-07
-4.82852e-05
1.30422e-06
-4.9191e-05
3.39468e-06
-4.96043e-05
5.54633e-06
-4.94697e-05
7.68915e-06
-4.87249e-05
9.71824e-06
-4.74111e-05
1.15469e-05
-4.56401e-05
1.31371e-05
-4.35032e-05
1.44656e-05
-4.1145e-05
1.55181e-05
1.63221e-05
-3.87377e-05
1.80661e-05
0.000126375
1.36795e-05
9.79161e-05
7.71339e-06
7.06846e-05
1.01217e-06
4.72731e-05
-5.80005e-06
2.84529e-05
-1.2214e-05
1.43448e-05
-1.78557e-05
4.89573e-06
-2.26106e-05
-4.16678e-07
-2.66298e-05
-2.72395e-06
-3.01675e-05
-3.28282e-06
-3.34237e-05
-2.99777e-06
-3.63709e-05
-2.34902e-06
-3.89292e-05
-1.45118e-06
-4.10413e-05
-3.36782e-07
-4.26802e-05
9.75105e-07
-4.38274e-05
2.45139e-06
-4.44664e-05
4.03377e-06
-4.45818e-05
5.66165e-06
-4.41652e-05
7.27258e-06
-4.32516e-05
8.80466e-06
-4.1921e-05
1.02163e-05
-4.02697e-05
1.14857e-05
-3.83996e-05
1.25956e-05
-3.64182e-05
1.35366e-05
1.4313e-05
-3.4409e-05
2.07794e-05
0.000128224
1.6592e-05
0.000102104
1.08155e-05
7.64612e-05
4.23632e-06
5.38522e-05
-2.54128e-06
3.52306e-05
-9.01552e-06
2.0819e-05
-1.47574e-05
1.06376e-05
-1.95566e-05
4.38258e-06
-2.34791e-05
1.19854e-06
-2.67259e-05
-3.60524e-08
-2.95059e-05
-2.17766e-07
-3.19651e-05
1.10191e-07
-3.41091e-05
6.92831e-07
-3.58893e-05
1.44339e-06
-3.72659e-05
2.35177e-06
-3.8207e-05
3.39247e-06
-3.86929e-05
4.51969e-06
-3.87199e-05
5.68857e-06
-3.83058e-05
6.85852e-06
-3.75009e-05
7.99975e-06
-3.63758e-05
9.0912e-06
-3.50041e-05
1.01141e-05
-3.34584e-05
1.10499e-05
-3.18033e-05
1.18816e-05
1.2597e-05
-3.00874e-05
2.41437e-05
0.000129929
2.01767e-05
0.000106071
1.46014e-05
8.20364e-05
8.15709e-06
6.02966e-05
1.43491e-06
4.19527e-05
-5.08493e-06
2.73389e-05
-1.09613e-05
1.65139e-05
-1.59004e-05
9.32169e-06
-1.9876e-05
5.17418e-06
-2.30548e-05
3.14266e-06
-2.56266e-05
2.3541e-06
-2.77462e-05
2.22977e-06
-2.94982e-05
2.44484e-06
-3.09205e-05
2.86564e-06
-3.20072e-05
3.43849e-06
-3.27381e-05
4.12342e-06
-3.31035e-05
4.88502e-06
-3.31082e-05
5.69331e-06
-3.27698e-05
6.52017e-06
-3.21205e-05
7.35039e-06
-3.1202e-05
8.17272e-06
-3.00629e-05
8.975e-06
-2.87545e-05
9.74144e-06
-2.73235e-05
1.04506e-05
1.10835e-05
-2.581e-05
2.82502e-05
0.000131402
2.45582e-05
0.000109763
1.92185e-05
8.73761e-05
1.29306e-05
6.65845e-05
6.28246e-06
4.86009e-05
-2.61703e-07
3.3883e-05
-6.28206e-06
2.25343e-05
-1.14348e-05
1.44744e-05
-1.55939e-05
9.33331e-06
-1.88608e-05
6.40953e-06
-2.1425e-05
4.91829e-06
-2.34485e-05
4.25323e-06
-2.50487e-05
4.04504e-06
-2.62901e-05
4.10712e-06
-2.71979e-05
4.34629e-06
-2.77825e-05
4.70801e-06
-2.80546e-05
5.15706e-06
-2.80291e-05
5.66781e-06
-2.77263e-05
6.21736e-06
-2.71684e-05
6.79253e-06
-2.63777e-05
7.38201e-06
-2.53832e-05
7.98056e-06
-2.42223e-05
8.58053e-06
-2.29336e-05
9.16191e-06
9.70479e-06
-2.1555e-05
3.31633e-05
0.000132523
2.9838e-05
0.000113088
2.48013e-05
9.24129e-05
1.87149e-05
7.26708e-05
1.21671e-05
5.51488e-05
5.62427e-06
4.04259e-05
-5.1991e-07
2.86785e-05
-5.91875e-06
1.98733e-05
-1.03642e-05
1.37788e-05
-1.3864e-05
9.9093e-06
-1.65709e-05
7.62527e-06
-1.86603e-05
6.3426e-06
-2.02695e-05
5.65419e-06
-2.14836e-05
5.32126e-06
-2.23499e-05
5.21256e-06
-2.28969e-05
5.25504e-06
-2.31462e-05
5.40629e-06
-2.31181e-05
5.6398e-06
-2.2838e-05
5.9372e-06
-2.23317e-05
6.28628e-06
-2.16219e-05
6.67219e-06
-2.07266e-05
7.08525e-06
-1.96691e-05
7.52304e-06
-1.84821e-05
7.97489e-06
8.42511e-06
-1.72024e-05
3.89085e-05
0.000133151
3.60802e-05
0.000115916
3.14555e-05
9.70376e-05
2.56527e-05
7.84736e-05
1.926e-05
6.15415e-05
1.27554e-05
4.69305e-05
6.52533e-06
3.49085e-05
8.98587e-07
2.55e-05
-3.88091e-06
1.85583e-05
-7.72803e-06
1.37564e-05
-1.0722e-05
1.06192e-05
-1.30166e-05
8.63718e-06
-1.47603e-05
7.39786e-06
-1.60604e-05
6.62136e-06
-1.69848e-05
6.13705e-06
-1.75769e-05
5.84713e-06
-1.78674e-05
5.6968e-06
-1.78833e-05
5.65571e-06
-1.76524e-05
5.70622e-06
-1.7202e-05
5.83587e-06
-1.6561e-05
6.03126e-06
-1.57544e-05
6.27863e-06
-1.47996e-05
6.56818e-06
-1.37158e-05
6.89109e-06
7.24178e-06
-1.25324e-05
4.54585e-05
0.000133123
4.32932e-05
0.000118081
3.92362e-05
0.000101095
3.38477e-05
8.38621e-05
2.7709e-05
6.76802e-05
2.13135e-05
5.33259e-05
1.50563e-05
4.11657e-05
9.2577e-06
3.12986e-05
4.16751e-06
2.36485e-05
-7.18064e-08
1.79957e-05
-3.45454e-06
1.4002e-05
-6.07924e-06
1.12619e-05
-8.08031e-06
9.39893e-06
-9.57628e-06
8.11732e-06
-1.06527e-05
7.21347e-06
-1.13678e-05
6.56219e-06
-1.17627e-05
6.09176e-06
-1.1872e-05
5.76497e-06
-1.17286e-05
5.56281e-06
-1.13656e-05
5.47292e-06
-1.08165e-05
5.48215e-06
-1.01106e-05
5.5727e-06
-9.26911e-06
5.72672e-06
-8.3082e-06
5.93018e-06
6.17715e-06
-7.24357e-06
5.27209e-05
0.000132277
5.14091e-05
0.000119393
4.812e-05
0.000104384
4.33321e-05
8.865e-05
3.76033e-05
7.3409e-05
3.14391e-05
5.94901e-05
2.52525e-05
4.73523e-05
1.93711e-05
3.71801e-05
1.4048e-05
2.89716e-05
9.45267e-06
2.25911e-05
5.65397e-06
1.78007e-05
2.61958e-06
1.42963e-05
2.56794e-07
1.17617e-05
-1.54191e-06
9.91602e-06
-2.86907e-06
8.54063e-06
-3.79326e-06
7.48638e-06
-4.36543e-06
6.66393e-06
-4.62985e-06
6.02939e-06
-4.62898e-06
5.56195e-06
-4.40391e-06
5.24784e-06
-3.99463e-06
5.07287e-06
-3.43276e-06
5.01083e-06
-2.73852e-06
5.03247e-06
-1.9269e-06
5.11856e-06
5.25808e-06
-1.00782e-06
6.0531e-05
0.000130464
6.02675e-05
0.000119657
5.79772e-05
0.000106674
5.40286e-05
9.25987e-05
4.89291e-05
7.85084e-05
4.31824e-05
6.52369e-05
3.722e-05
5.33147e-05
3.13879e-05
4.30122e-05
2.59521e-05
3.44074e-05
2.11011e-05
2.7442e-05
1.69414e-05
2.19604e-05
1.34953e-05
1.77423e-05
1.07197e-05
1.45374e-05
8.53664e-06
1.20991e-05
6.86471e-06
1.02126e-05
5.63656e-06
8.71452e-06
4.79815e-06
7.50235e-06
4.29473e-06
6.5328e-06
4.06906e-06
5.78762e-06
4.07299e-06
5.24391e-06
4.26628e-06
4.87958e-06
4.62109e-06
4.65602e-06
5.12032e-06
4.53324e-06
5.75155e-06
4.48734e-06
4.50487e-06
6.50476e-06
6.86574e-05
0.00012758
6.96107e-05
0.000118703
6.85525e-05
0.000107732
6.57158e-05
9.54353e-05
6.15232e-05
8.27011e-05
5.64495e-05
7.03106e-05
5.09337e-05
5.88305e-05
4.53422e-05
4.86037e-05
3.99621e-05
3.97875e-05
3.50039e-05
3.24002e-05
3.06028e-05
2.63615e-05
2.68211e-05
2.1524e-05
2.36577e-05
1.77008e-05
2.10686e-05
1.46881e-05