/*--------------------------------*- C++ -*----------------------------------*\
| =========                 |                                                 |
| \\      /  F ield         | OpenFOAM: The Open Source CFD Toolbox           |
|  \\    /   O peration     | Version:  v2012                                 |
|   \\  /    A nd           | Website:  www.openfoam.com                      |
|    \\/     M anipulation  |                                                 |
\*---------------------------------------------------------------------------*/
FoamFile
{
    version     2.0;
    format      ascii;
    class       volVectorField;
    location    "597";
    object      U;
}
// * * * * * * * * * * * * * * * * * * * * * * * * * * * * * * * * * * * * * //

dimensions      [0 1 -1 0 0 0 0];


internalField   nonuniform List<vector> 
6598
(
(8.19795e-05 -0.999735 0)
(0.000211415 -1.00004 0)
(0.000143196 -1.00003 0)
(7.34323e-05 -1.00002 0)
(2.27002e-05 -1.00001 0)
(-2.24116e-05 -1.00001 0)
(-7.31881e-05 -1.00002 0)
(-0.000143036 -1.00003 0)
(-0.000211376 -1.00004 0)
(-8.19655e-05 -0.999735 0)
(0.000324319 -0.999422 0)
(0.000391638 -1.00014 0)
(0.000295551 -1.00015 0)
(0.000174944 -1.00012 0)
(5.76222e-05 -1.00011 0)
(-5.67416e-05 -1.00011 0)
(-0.0001742 -1.00012 0)
(-0.000295022 -1.00015 0)
(-0.000391575 -1.00014 0)
(-0.000324283 -0.999422 0)
(0.000399105 -0.998963 0)
(0.000440369 -1.00017 0)
(0.000355662 -1.0003 0)
(0.00022687 -1.0003 0)
(7.73508e-05 -1.00029 0)
(-7.5658e-05 -1.00029 0)
(-0.000225372 -1.0003 0)
(-0.000354484 -1.0003 0)
(-0.000439335 -1.00018 0)
(-0.000398792 -0.998964 0)
(0.000404586 -0.998446 0)
(0.000434459 -1.00016 0)
(0.000366654 -1.00043 0)
(0.000244525 -1.00048 0)
(8.51549e-05 -1.00049 0)
(-8.23292e-05 -1.00049 0)
(-0.000241996 -1.00049 0)
(-0.000364607 -1.00043 0)
(-0.000433095 -1.00016 0)
(-0.000403946 -0.998447 0)
(0.000390986 -0.997948 0)
(0.000419492 -1.00013 0)
(0.000361875 -1.00056 0)
(0.000244927 -1.00067 0)
(8.68421e-05 -1.0007 0)
(-8.23962e-05 -1.0007 0)
(-0.000240908 -1.00067 0)
(-0.000358598 -1.00056 0)
(-0.000417431 -1.00014 0)
(-0.00038994 -0.99795 0)
(0.000371399 -0.997484 0)
(0.000396679 -1.0001 0)
(0.000352463 -1.00066 0)
(0.000238993 -1.00084 0)
(8.59324e-05 -1.0009 0)
(-7.9148e-05 -1.0009 0)
(-0.00023286 -1.00084 0)
(-0.000347605 -1.00067 0)
(-0.000393459 -1.00011 0)
(-0.000369789 -0.997489 0)
(0.00035126 -0.997049 0)
(0.000374164 -1.00007 0)
(0.000335892 -1.00077 0)
(0.000229251 -1.00101 0)
(8.37984e-05 -1.00109 0)
(-7.35004e-05 -1.00109 0)
(-0.000219956 -1.00101 0)
(-0.000328592 -1.00077 0)
(-0.000369234 -1.00008 0)
(-0.000348869 -0.997058 0)
(0.000332711 -0.996637 0)
(0.000354198 -1.00004 0)
(0.000319061 -1.00086 0)
(0.000219339 -1.00117 0)
(8.20854e-05 -1.00128 0)
(-6.64222e-05 -1.00128 0)
(-0.000205196 -1.00117 0)
(-0.000307854 -1.00087 0)
(-0.000346709 -1.00005 0)
(-0.000329179 -0.99665 0)
(0.000316643 -0.996244 0)
(0.000337531 -1.00001 0)
(0.000305448 -1.00095 0)
(0.00021157 -1.00131 0)
(8.20335e-05 -1.00145 0)
(-5.82507e-05 -1.00145 0)
(-0.000190084 -1.00132 0)
(-0.000288375 -1.00097 0)
(-0.000326183 -1.00003 0)
(-0.000311316 -0.996266 0)
(0.000303396 -0.995867 0)
(0.000324683 -0.999981 0)
(0.000295733 -1.00104 0)
(0.000207039 -1.00145 0)
(8.45318e-05 -1.00161 0)
(-4.85382e-05 -1.00162 0)
(-0.000174525 -1.00147 0)
(-0.000269881 -1.00106 0)
(-0.000307505 -1.00001 0)
(-0.000295374 -0.995901 0)
(0.000293044 -0.995502 0)
(0.000316013 -0.999953 0)
(0.000290486 -1.00111 0)
(0.000206696 -1.00158 0)
(9.06179e-05 -1.00177 0)
(-3.62976e-05 -1.00178 0)
(-0.000157664 -1.0016 0)
(-0.000251414 -1.00115 0)
(-0.000289994 -0.999995 0)
(-0.000281015 -0.995554 0)
(0.000285679 -0.995145 0)
(0.00031209 -0.999923 0)
(0.000290729 -1.00119 0)
(0.000211831 -1.00171 0)
(0.000101794 -1.00192 0)
(-1.99635e-05 -1.00193 0)
(-0.000138035 -1.00174 0)
(-0.000231605 -1.00124 0)
(-0.000272549 -0.999988 0)
(-0.000267649 -0.995224 0)
(0.000281578 -0.994791 0)
(0.000313798 -0.999889 0)
(0.000298136 -1.00126 0)
(0.000224489 -1.00182 0)
(0.000120416 -1.00206 0)
(2.87554e-06 -1.00208 0)
(-0.000113409 -1.00187 0)
(-0.000208571 -1.00133 0)
(-0.000253749 -0.999988 0)
(-0.000254554 -0.994912 0)
(0.000281003 -0.994435 0)
(0.000321288 -0.999848 0)
(0.000312961 -1.00131 0)
(0.00024798 -1.00193 0)
(0.000149911 -1.00219 0)
(3.57829e-05 -1.00222 0)
(-8.05713e-05 -1.00201 0)
(-0.000179768 -1.00143 0)
(-0.000231834 -0.999998 0)
(-0.000240905 -0.994619 0)
(0.000284845 -0.99407 0)
(0.000337511 -0.999795 0)
(0.00034128 -1.00136 0)
(0.00028663 -1.00203 0)
(0.000195667 -1.00232 0)
(8.41463e-05 -1.00236 0)
(-3.48034e-05 -1.00215 0)
(-0.000141674 -1.00154 0)
(-0.000204604 -1.00002 0)
(-0.000225845 -0.994347 0)
(0.000294372 -0.993688 0)
(0.000366104 -0.999724 0)
(0.000387333 -1.00139 0)
(0.000347107 -1.00212 0)
(0.000263427 -1.00245 0)
(0.000155999 -1.00251 0)
(3.27765e-05 -1.00229 0)
(-8.94078e-05 -1.00166 0)
(-0.000169732 -1.00007 0)
(-0.000208741 -0.994103 0)
(0.000311415 -0.993275 0)
(0.00041219 -0.999626 0)
(0.000459071 -1.0014 0)
(0.000440336 -1.00219 0)
(0.000370432 -1.00256 0)
(0.000264517 -1.00265 0)
(0.000129923 -1.00246 0)
(-1.59581e-05 -1.00181 0)
(-0.000124409 -1.00014 0)
(-0.000190917 -0.99389 0)
(0.00033838 -0.992814 0)
(0.000482492 -0.999485 0)
(0.000567792 -1.00137 0)
(0.000580638 -1.00223 0)
(0.000534731 -1.00266 0)
(0.000430649 -1.00281 0)
(0.000274875 -1.00265 0)
(8.6929e-05 -1.00201 0)
(-7.81889e-05 -1.00027 0)
(-0.000180217 -0.9937 0)
(0.000378526 -0.99228 0)
(0.000586048 -0.99928 0)
(0.000728962 -1.00128 0)
(0.000792243 -1.00223 0)
(0.000781952 -1.00274 0)
(0.000692467 -1.00297 0)
(0.000515549 -1.00288 0)
(0.000259653 -1.00228 0)
(1.21331e-05 -1.00045 0)
(-9.6792e-05 -0.993527 0)
(0.000434825 -0.991642 0)
(0.000732833 -0.998983 0)
(0.000960625 -1.00112 0)
(0.00110194 -1.00217 0)
(0.00115336 -1.00278 0)
(0.00109821 -1.00313 0)
(0.00088372 -1.00319 0)
(0.000486602 -1.00275 0)
(-0.000186865 -1.00123 0)
(-0.000542554 -0.996099 0)
(0.000514814 -0.990878 0)
(0.000931562 -0.998561 0)
(0.00128022 -1.00083 0)
(0.00154131 -1.00199 0)
(0.00171022 -1.00273 0)
(0.00178125 -1.00323 0)
(0.00170685 -1.00353 0)
(0.00162764 -1.00336 0)
(0.0024215 -1.00131 0)
(0.00919015 -0.982503 0)
(0.000619422 -0.98993 0)
(0.00118796 -0.997972 0)
(0.00169693 -1.00038 0)
(0.00212126 -1.00165 0)
(0.00246074 -1.0025 0)
(0.00272789 -1.00312 0)
(0.00292186 -1.00345 0)
(0.00290894 -1.00321 0)
(0.00337142 -0.99998 0)
(0.016803 -0.965844 0)
(0.000749065 -0.98875 0)
(0.00150443 -0.997161 0)
(0.00221435 -0.999706 0)
(0.00284206 -1.00108 0)
(0.00338831 -1.00203 0)
(0.00387777 -1.00272 0)
(0.00436902 -1.00306 0)
(0.00469099 -1.00243 0)
(0.00464904 -0.997658 0)
(0.0212367 -0.952052 0)
(0.00090335 -0.987287 0)
(0.00188054 -0.996079 0)
(0.00283111 -0.998761 0)
(0.00370137 -1.00023 0)
(0.00449441 -1.00127 0)
(0.00524086 -1.00201 0)
(0.00605889 -1.00227 0)
(0.00705713 -1.00102 0)
(0.00700326 -0.993883 0)
(0.0253056 -0.936643 0)
(0.00108305 -0.985489 0)
(0.00231848 -0.994678 0)
(0.0035501 -0.997499 0)
(0.00470262 -0.999061 0)
(0.00578546 -1.00017 0)
(0.00683355 -1.00093 0)
(0.00797952 -1.00102 0)
(0.0096509 -0.998919 0)
(0.0100021 -0.988633 0)
(0.0284358 -0.919044 0)
(0.00128938 -0.983305 0)
(0.00282165 -0.992906 0)
(0.00437552 -0.995872 0)
(0.00584908 -0.997523 0)
(0.00726001 -0.998684 0)
(0.00864938 -0.999424 0)
(0.0101436 -0.999258 0)
(0.0124156 -0.996151 0)
(0.0135425 -0.982214 0)
(0.0310249 -0.901667 0)
(0.00152708 -0.980688 0)
(0.0033965 -0.990718 0)
(0.005314 -0.99383 0)
(0.00714862 -0.995568 0)
(0.00892593 -0.996773 0)
(0.0106957 -0.997453 0)
(0.0125747 -0.996947 0)
(0.0154049 -0.99268 0)
(0.0175623 -0.974776 0)
(0.0335572 -0.885349 0)
(0.00180086 -0.977472 0)
(0.00405717 -0.988 0)
(0.00639499 -0.991271 0)
(0.0086448 -0.9931 0)
(0.0108395 -0.994341 0)
(0.0130396 -0.994931 0)
(0.0153552 -0.994005 0)
(0.0186886 -0.988426 0)
(0.0220408 -0.966367 0)
(0.0360425 -0.869857 0)
(0.00211356 -0.97364 0)
(0.0048232 -0.984654 0)
(0.00763645 -0.988103 0)
(0.0103682 -0.990031 0)
(0.0130412 -0.991304 0)
(0.015733 -0.991775 0)
(0.0185653 -0.990353 0)
(0.022383 -0.983337 0)
(0.0269135 -0.95722 0)
(0.039844 -0.855508 0)
(0.00247231 -0.969099 0)
(0.00569364 -0.980707 0)
(0.00904912 -0.984293 0)
(0.012326 -0.986323 0)
(0.015534 -0.987624 0)
(0.0187675 -0.987954 0)
(0.0221746 -0.985973 0)
(0.0265 -0.977413 0)
(0.0318548 -0.947448 0)
(0.0443884 -0.842215 0)
(0.00287648 -0.963765 0)
(0.00667746 -0.975951 0)
(0.0106706 -0.979754 0)
(0.0145561 -0.981897 0)
(0.0183611 -0.983232 0)
(0.0221843 -0.983412 0)
(0.0261978 -0.980843 0)
(0.0310523 -0.970711 0)
(0.0370305 -0.93725 0)
(0.048835 -0.830696 0)
(0.00333811 -0.957538 0)
(0.00780752 -0.970343 0)
(0.0125264 -0.97439 0)
(0.0171026 -0.976666 0)
(0.0215826 -0.978049 0)
(0.026059 -0.978093 0)
(0.0307159 -0.97496 0)
(0.0360917 -0.96334 0)
(0.04272 -0.926879 0)
(0.0533456 -0.821095 0)
(0.00386861 -0.95028 0)
(0.00910915 -0.963766 0)
(0.014655 -0.968084 0)
(0.0200249 -0.970518 0)
(0.0252787 -0.971977 0)
(0.0304978 -0.97192 0)
(0.0358656 -0.968285 0)
(0.0418186 -0.955356 0)
(0.0490465 -0.916519 0)
(0.0583715 -0.813381 0)
(0.00447845 -0.941826 0)
(0.0106099 -0.956067 0)
(0.0171055 -0.96069 0)
(0.0233925 -0.963315 0)
(0.0295409 -0.964885 0)
(0.0356197 -0.964773 0)
(0.0417939 -0.960723 0)
(0.0484346 -0.946678 0)
(0.0560906 -0.906466 0)
(0.0642702 -0.807341 0)
(0.00517844 -0.931996 0)
(0.0123389 -0.947076 0)
(0.0199288 -0.952043 0)
(0.0272771 -0.95489 0)
(0.0344633 -0.956608 0)
(0.0415445 -0.956498 0)
(0.0486555 -0.952148 0)
(0.0560771 -0.937331 0)
(0.064107 -0.896717 0)
(0.0713858 -0.802672 0)
(0.00597904 -0.920584 0)
(0.0143239 -0.936596 0)
(0.0231726 -0.941949 0)
(0.0317455 -0.945049 0)
(0.0401342 -0.946952 0)
(0.0483834 -0.946907 0)
(0.0565896 -0.942402 0)
(0.0649192 -0.927219 0)
(0.0733807 -0.887137 0)
(0.0800595 -0.799015 0)
(0.00688915 -0.90736 0)
(0.0165885 -0.924408 0)
(0.0268774 -0.930194 0)
(0.0368552 -0.933575 0)
(0.0466296 -0.935697 0)
(0.0562331 -0.935785 0)
(0.0657179 -0.931289 0)
(0.0751258 -0.916168 0)
(0.0841745 -0.877489 0)
(0.0906088 -0.795948 0)
(0.0079155 -0.892079 0)
(0.0191502 -0.910275 0)
(0.0310738 -0.916542 0)
(0.0426489 -0.920229 0)
(0.0540053 -0.922599 0)
(0.0651651 -0.922885 0)
(0.0761334 -0.918572 0)
(0.0868281 -0.903934 0)
(0.0967011 -0.867428 0)
(0.103306 -0.792969 0)
(0.00906042 -0.874482 0)
(0.0220188 -0.893945 0)
(0.0357785 -0.900748 0)
(0.0491491 -0.904762 0)
(0.0622892 -0.907401 0)
(0.0752151 -0.907943 0)
(0.0878858 -0.903975 0)
(0.100105 -0.890206 0)
(0.111105 -0.856513 0)
(0.118352 -0.789494 0)
(0.0103299 -0.854305 0)
(0.0251949 -0.875159 0)
(0.040992 -0.882559 0)
(0.0563541 -0.886922 0)
(0.0714752 -0.889843 0)
(0.0863742 -0.890686 0)
(0.100969 -0.887202 0)
(0.114969 -0.874622 0)
(0.127441 -0.84423 0)
(0.135851 -0.784858 0)
(0.0117345 -0.831283 0)
(0.028672 -0.853674 0)
(0.0466977 -0.861735 0)
(0.0642359 -0.866467 0)
(0.081521 -0.869678 0)
(0.0985844 -0.87085 0)
(0.115314 -0.867953 0)
(0.13135 -0.856796 0)
(0.14566 -0.830015 0)
(0.155774 -0.77833 0)
(0.0132679 -0.805146 0)
(0.0324383 -0.829271 0)
(0.0528639 -0.838052 0)
(0.072742 -0.843179 0)
(0.0923474 -0.846682 0)
(0.111737 -0.848195 0)
(0.130784 -0.845945 0)
(0.149088 -0.836345 0)
(0.165586 -0.813299 0)
(0.177934 -0.76915 0)
(0.0149145 -0.775634 0)
(0.0364759 -0.80174 0)
(0.0594473 -0.811319 0)
(0.0817986 -0.816875 0)
(0.103843 -0.820676 0)
(0.125678 -0.822528 0)
(0.147178 -0.820941 0)
(0.167935 -0.812928 0)
(0.186918 -0.793551 0)
(0.201967 -0.756581 0)
(0.0166652 -0.742518 0)
(0.0407616 -0.770897 0)
(0.0663959 -0.781383 0)
(0.0913171 -0.787423 0)
(0.115872 -0.79154 0)
(0.140215 -0.793724 0)
(0.164239 -0.792777 0)
(0.187563 -0.786284 0)
(0.209238 -0.770341 0)
(0.227342 -0.739983 0)
(0.0185148 -0.705584 0)
(0.0452746 -0.736589 0)
(0.0736574 -0.748136 0)
(0.101203 -0.754749 0)
(0.128287 -0.759222 0)
(0.155134 -0.761739 0)
(0.181676 -0.761385 0)
(0.207586 -0.756272 0)
(0.23204 -0.743395 0)
(0.253391 -0.718897 0)
(0.0204632 -0.664627 0)
(0.0500033 -0.698692 0)
(0.081188 -0.71152 0)
(0.111368 -0.718845 0)
(0.140938 -0.723754 0)
(0.170217 -0.726624 0)
(0.199187 -0.726814 0)
(0.227598 -0.7229 0)
(0.254777 -0.712636 0)
(0.279375 -0.693118 0)
(0.0225176 -0.619442 0)
(0.0549518 -0.657108 0)
(0.0889608 -0.67153 0)
(0.121737 -0.679771 0)
(0.153692 -0.685249 0)
(0.185255 -0.688533 0)
(0.216481 -0.689234 0)
(0.247204 -0.68633 0)
(0.276917 -0.678201 0)
(0.304567 -0.66274 0)
(0.0246953 -0.569806 0)
(0.060145 -0.611759 0)
(0.0969719 -0.628212 0)
(0.132258 -0.637661 0)
(0.166432 -0.643905 0)
(0.200064 -0.647712 0)
(0.233294 -0.648928 0)
(0.266051 -0.646873 0)
(0.297989 -0.640431 0)
(0.328331 -0.62814 0)
(0.027026 -0.515456 0)
(0.0656321 -0.562579 0)
(0.10524 -0.58167 0)
(0.14289 -0.592726 0)
(0.179051 -0.600004 0)
(0.214471 -0.604497 0)
(0.249393 -0.606275 0)
(0.283839 -0.604954 0)
(0.317611 -0.599821 0)
(0.350174 -0.589924 0)
(0.0295533 -0.45607 0)
(0.0714834 -0.509521 0)
(0.113792 -0.532084 0)
(0.153584 -0.545266 0)
(0.191426 -0.553912 0)
(0.228294 -0.559295 0)
(0.26455 -0.561721 0)
(0.300305 -0.561069 0)
(0.335488 -0.556957 0)
(0.369758 -0.548826 0)
(0.0323438 -0.391234 0)
(0.0777808 -0.452579 0)
(0.122617 -0.479719 0)
(0.164223 -0.495668 0)
(0.203357 -0.506066 0)
(0.241281 -0.512567 0)
(0.278491 -0.515743 0)
(0.315175 -0.515732 0)
(0.351359 -0.51243 0)
(0.386852 -0.505593 0)
(0.0355412 -0.320467 0)
(0.0845114 -0.391906 0)
(0.131502 -0.42506 0)
(0.174493 -0.444501 0)
(0.214476 -0.457015 0)
(0.253032 -0.464818 0)
(0.290818 -0.468817 0)
(0.328087 -0.469417 0)
(0.364929 -0.466768 0)
(0.401248 -0.46088 0)
(0.0390318 -0.243738 0)
(0.0915976 -0.328086 0)
(0.139886 -0.368301 0)
(0.183612 -0.392135 0)
(0.223995 -0.407252 0)
(0.262816 -0.416528 0)
(0.300876 -0.421367 0)
(0.338478 -0.422514 0)
(0.375747 -0.420374 0)
(0.412637 -0.415181 0)
(0.0392686 -0.157572 0)
(0.0958842 -0.264281 0)
(0.14633 -0.312076 0)
(0.190651 -0.339787 0)
(0.230887 -0.357343 0)
(0.269544 -0.368047 0)
(0.307645 -0.373653 0)
(0.345461 -0.375234 0)
(0.383084 -0.373455 0)
(0.420474 -0.368748 0)
(0.0311286 -0.0684677 0)
(0.0887205 -0.186104 0)
(0.144065 -0.251609 0)
(0.191566 -0.287367 0)
(0.232712 -0.307968 0)
(0.27142 -0.31983 0)
(0.309596 -0.325876 0)
(0.3477 -0.327635 0)
(0.385808 -0.32601 0)
(0.423849 -0.321592 0)
(0.0180751 -0.00848995 0)
(0.0673072 -0.105973 0)
(0.125122 -0.18311 0)
(0.178085 -0.230394 0)
(0.223356 -0.256971 0)
(0.264322 -0.27109 0)
(0.303813 -0.277663 0)
(0.342962 -0.279356 0)
(0.38211 -0.27761 0)
(0.421263 -0.273259 0)
(0.00708135 0.0276579 0)
(0.0412332 -0.0364941 0)
(0.091587 -0.110812 0)
(0.14535 -0.165744 0)
(0.195266 -0.199803 0)
(0.241117 -0.218475 0)
(0.284563 -0.227044 0)
(0.326827 -0.2293 0)
(0.368551 -0.227609 0)
(0.409942 -0.223332 0)
(-0.0058747 0.0452124 0)
(0.0181896 0.00816786 0)
(0.0527227 -0.0488646 0)
(0.096908 -0.0998898 0)
(0.14551 -0.135967 0)
(0.195077 -0.158196 0)
(0.243979 -0.169741 0)
(0.291776 -0.173942 0)
(0.338493 -0.173389 0)
(0.384262 -0.169846 0)
(-0.0204025 0.0445841 0)
(-0.0117054 0.0231684 0)
(0.010064 -0.00930883 0)
(0.0400819 -0.045386 0)
(0.0801263 -0.074364 0)
(0.12797 -0.0937699 0)
(0.180362 -0.1045 0)
(0.234045 -0.109306 0)
(0.287159 -0.109928 0)
(0.339171 -0.107379 0)
(-0.0253461 0.0126071 0)
(-0.0452443 0.00205176 0)
(-0.0526191 -0.0140587 0)
(-0.0309333 -0.0276594 0)
(0.000199756 -0.039351 0)
(0.0429782 -0.0460827 0)
(0.0939108 -0.0495772 0)
(0.151741 -0.0524017 0)
(0.214345 -0.053772 0)
(0.274329 -0.0527448 0)
(-0.0409945 -0.149134 0)
(-0.116519 0.0219411 0)
(-0.0903148 0.0286007 0)
(-0.0655511 0.0298367 0)
(-0.0368624 0.031677 0)
(-0.00961695 0.0319925 0)
(0.0173902 0.0299708 0)
(0.0430466 0.0270037 0)
(0.0679053 0.0244159 0)
(0.0900876 0.0214208 0)
(0.107138 0.0176402 0)
(0.120525 0.0137956 0)
(0.130321 0.0101321 0)
(0.136614 0.00719752 0)
(0.139752 0.00464171 0)
(0.139903 0.00186123 0)
(0.137055 -0.001042 0)
(0.131011 -0.00419937 0)
(0.121484 -0.00741722 0)
(0.108165 -0.0109161 0)
(0.0907495 -0.0144974 0)
(0.0694653 -0.0174993 0)
(0.0445245 -0.0180735 0)
(0.0181531 -0.0140264 0)
(0.00297781 -0.0068581 0)
(-0.0248512 -0.219776 0)
(-0.0715737 0.00381553 0)
(-0.0729703 0.0359995 0)
(-0.0624884 0.0461019 0)
(-0.0441004 0.051644 0)
(-0.0219974 0.0535214 0)
(0.00182717 0.0517021 0)
(0.0255425 0.0474979 0)
(0.0469496 0.0418276 0)
(0.0650444 0.0349717 0)
(0.0798697 0.0276364 0)
(0.0915937 0.0205981 0)
(0.100327 0.0140017 0)
(0.10623 0.00796979 0)
(0.109559 0.00241938 0)
(0.11069 -0.00285382 0)
(0.10992 -0.0080885 0)
(0.107251 -0.0135988 0)
(0.102541 -0.0196673 0)
(0.0955359 -0.0264061 0)
(0.0858825 -0.0336027 0)
(0.0729852 -0.0403826 0)
(0.0570897 -0.0442895 0)
(0.0345031 -0.040923 0)
(0.0123145 -0.0283764 0)
(-0.00455885 -0.293227 0)
(-0.0545634 -0.0256613 0)
(-0.0657046 0.0370346 0)
(-0.0625799 0.060225 0)
(-0.0499673 0.0727752 0)
(-0.0326153 0.0784411 0)
(-0.0128814 0.0788779 0)
(0.0076563 0.0745021 0)
(0.0266383 0.0662068 0)
(0.0430013 0.0557984 0)
(0.056223 0.0448082 0)
(0.066183 0.03401 0)
(0.0734222 0.0239448 0)
(0.078449 0.0149438 0)
(0.0814758 0.00682701 0)
(0.0827147 -0.000802778 0)
(0.0823168 -0.0084225 0)
(0.0803827 -0.0164069 0)
(0.0769894 -0.025089 0)
(0.0721604 -0.0347111 0)
(0.0658339 -0.0452408 0)
(0.0575285 -0.0559541 0)
(0.0470448 -0.0645867 0)
(0.0321958 -0.0659568 0)
(0.0145571 -0.0536392 0)
(0.00664472 -0.365582 0)
(-0.0482198 -0.0624704 0)
(-0.0653168 0.0300491 0)
(-0.0668918 0.0692943 0)
(-0.0578108 0.0908825 0)
(-0.0432556 0.101153 0)
(-0.0267816 0.103152 0)
(-0.0100698 0.0981389 0)
(0.00564078 0.0874771 0)
(0.0194166 0.0735769 0)
(0.0307106 0.0585544 0)
(0.0394212 0.0440181 0)
(0.0459153 0.0310092 0)
(0.0506358 0.0195786 0)
(0.0537579 0.00930005 0)
(0.0554357 -0.000333136 0)
(0.0557303 -0.00975849 0)
(0.0546984 -0.019389 0)
(0.0524517 -0.0296013 0)
(0.0491149 -0.0407393 0)
(0.0448002 -0.0530185 0)
(0.0393787 -0.0661393 0)
(0.0325322 -0.0784294 0)
(0.0232539 -0.08492 0)
(0.01274 -0.0828293 0)
(0.0161516 -0.426441 0)
(-0.0398036 -0.111436 0)
(-0.0635326 0.0139704 0)
(-0.0697159 0.0726331 0)
(-0.0653023 0.104521 0)
(-0.0539127 0.119599 0)
(-0.0405726 0.122475 0)
(-0.0270888 0.116447 0)
(-0.014498 0.103924 0)
(-0.00336809 0.0876108 0)
(0.00599616 0.0699212 0)
(0.0135474 0.0529849 0)
(0.019449 0.0379147 0)
(0.0239018 0.0246768 0)
(0.0271022 0.0127233 0)
(0.0291819 0.00145177 0)
(0.0301686 -0.0096084 0)
(0.0300803 -0.0207811 0)
(0.0290326 -0.0323545 0)
(0.0271768 -0.0446462 0)
(0.0246917 -0.057957 0)
(0.0217016 -0.0722781 0)
(0.0180471 -0.0865175 0)
(0.0127255 -0.096706 0)
(0.00837048 -0.0985437 0)
(0.0255912 -0.47547 0)
(-0.027898 -0.16394 0)
(-0.0553746 -0.010262 0)
(-0.0678297 0.0687588 0)
(-0.0688793 0.11245 0)
(-0.0624601 0.133101 0)
(-0.0532901 0.137735 0)
(-0.0432122 0.131469 0)
(-0.033105 0.117507 0)
(-0.0240945 0.0993836 0)
(-0.0161984 0.0796976 0)
(-0.00969023 0.0607757 0)
(-0.00458184 0.0439311 0)
(-0.000641658 0.0292535 0)
(0.00236564 0.0160364 0)
(0.00455958 0.00354745 0)
(0.00595522 -0.00867743 0)
(0.00657892 -0.020937 0)
(0.00656596 -0.0334555 0)
(0.00608498 -0.0465016 0)
(0.00534966 -0.0603501 0)
(0.00468898 -0.0750333 0)
(0.00440822 -0.0897773 0)
(0.00299547 -0.102003 0)
(0.00469248 -0.105402 0)
(0.0322216 -0.513829 0)
(-0.0132203 -0.214425 0)
(-0.0428482 -0.0420753 0)
(-0.0615445 0.0568199 0)
(-0.0685207 0.112871 0)
(-0.068024 0.139809 0)
(-0.0633691 0.147472 0)
(-0.0575862 0.142576 0)
(-0.0503106 0.128291 0)
(-0.0433577 0.109258 0)
(-0.0366758 0.088181 0)
(-0.0309026 0.0675395 0)
(-0.0263903 0.049111 0)
(-0.02304 0.0331997 0)
(-0.0204963 0.0190064 0)
(-0.018495 0.00565497 0)
(-0.0169759 -0.00734076 0)
(-0.0159158 -0.0202478 0)
(-0.0151606 -0.0332436 0)
(-0.0145009 -0.0465359 0)
(-0.0136747 -0.0603061 0)
(-0.0121079 -0.0744188 0)
(-0.00887875 -0.0880623 0)
(-0.00507942 -0.0997559 0)
(-0.000231781 -0.104198 0)
(0.0374218 -0.544439 0)
(0.00107134 -0.260275 0)
(-0.0297696 -0.0770815 0)
(-0.0520971 0.0367874 0)
(-0.0651527 0.104831 0)
(-0.070622 0.139988 0)
(-0.071439 0.150545 0)
(-0.0699547 0.148365 0)
(-0.0664973 0.135475 0)
(-0.0621751 0.116969 0)
(-0.057008 0.0955896 0)
(-0.0518213 0.0738193 0)
(-0.04749 0.0539 0)
(-0.0443899 0.036711 0)
(-0.0422708 0.0216768 0)
(-0.0406622 0.00778204 0)
(-0.039297 -0.00561958 0)
(-0.0381106 -0.0187826 0)
(-0.0369429 -0.0318072 0)
(-0.0355314 -0.0448243 0)
(-0.0335258 -0.0579119 0)
(-0.0299927 -0.0707577 0)
(-0.0226475 -0.0820543 0)
(-0.00945292 -0.0894725 0)
(0.00749999 -0.0922558 0)
(0.0419818 -0.56838 0)
(0.0126885 -0.301652 0)
(-0.0176634 -0.113988 0)
(-0.0422795 0.0104706 0)
(-0.0599828 0.0890485 0)
(-0.0713422 0.132329 0)
(-0.0777351 0.148653 0)
(-0.0808101 0.149517 0)
(-0.0822123 0.138152 0)
(-0.0810986 0.121742 0)
(-0.0782016 0.101626 0)
(-0.0739934 0.0798739 0)
(-0.0696266 0.0588313 0)
(-0.0661187 0.0400823 0)
(-0.0638133 0.0238204 0)
(-0.0623842 0.00928831 0)
(-0.0612901 -0.00435154 0)
(-0.0601492 -0.0175427 0)
(-0.0587457 -0.030345 0)
(-0.0566349 -0.0426098 0)
(-0.0532979 -0.0537894 0)
(-0.0480047 -0.0623855 0)
(-0.0393235 -0.0651143 0)
(-0.0266102 -0.0574996 0)
(-0.0174048 -0.04402 0)
(0.0462089 -0.587362 0)
(0.0219986 -0.338479 0)
(-0.00702229 -0.150871 0)
(-0.0330252 -0.019886 0)
(-0.0543008 0.0667631 0)
(-0.0705126 0.117012 0)
(-0.082205 0.13889 0)
(-0.0902148 0.142248 0)
(-0.0963047 0.135166 0)
(-0.0994806 0.122102 0)
(-0.100094 0.104888 0)
(-0.098244 0.0850303 0)
(-0.0947219 0.0643744 0)
(-0.0907338 0.0447024 0)
(-0.087269 0.0270327 0)
(-0.0846852 0.0114588 0)
(-0.0827669 -0.00245327 0)
(-0.08106 -0.0151207 0)
(-0.0791706 -0.0266363 0)
(-0.0769044 -0.0365539 0)
(-0.0745125 -0.0442941 0)
(-0.0731035 -0.0497208 0)
(-0.0751965 -0.0546908 0)
(-0.0861431 -0.0643453 0)
(-0.114017 -0.0901862 0)
(0.0501324 -0.602967 0)
(0.029626 -0.371609 0)
(0.00217774 -0.187287 0)
(-0.0246681 -0.05286 0)
(-0.0486859 0.0396255 0)
(-0.068809 0.0959442 0)
(-0.0849122 0.122847 0)
(-0.0977633 0.129913 0)
(-0.108066 0.126085 0)
(-0.115945 0.116542 0)
(-0.121236 0.103058 0)
(-0.123726 0.0866889 0)
(-0.123553 0.0685728 0)
(-0.121441 0.0500683 0)
(-0.118408 0.032396 0)
(-0.115376 0.0162581 0)
(-0.113085 0.00178515 0)
(-0.112058 -0.0113221 0)
(-0.112304 -0.023403 0)
(-0.114428 -0.0350634 0)
(-0.119557 -0.0474846 0)
(-0.129296 -0.062589 0)
(-0.145043 -0.0824285 0)
(-0.166256 -0.107753 0)
(-0.1867 -0.135415 0)
(0.0539488 -0.616226 0)
(0.0361532 -0.40172 0)
(0.0102073 -0.222981 0)
(-0.0170398 -0.0876696 0)
(-0.0429321 0.00859744 0)
(-0.0659915 0.0697902 0)
(-0.0856089 0.101169 0)
(-0.102092 0.111751 0)
(-0.116178 0.111018 0)
(-0.128256 0.104556 0)
(-0.138269 0.0943016 0)
(-0.146085 0.0813915 0)
(-0.151577 0.0665533 0)
(-0.154901 0.0504958 0)
(-0.156608 0.0339552 0)
(-0.157416 0.0173601 0)
(-0.158441 0.00103748 0)
(-0.160682 -0.0149556 0)
(-0.164648 -0.0309772 0)
(-0.170792 -0.0477722 0)
(-0.179294 -0.0659966 0)
(-0.189703 -0.0857182 0)
(-0.199292 -0.105361 0)
(-0.205323 -0.123168 0)
(-0.202358 -0.136908 0)
(0.0583665 -0.628036 0)
(0.0423104 -0.429558 0)
(0.0176846 -0.257819 0)
(-0.00957964 -0.123485 0)
(-0.0365466 -0.0250293 0)
(-0.0615461 0.0400689 0)
(-0.0835486 0.0755975 0)
(-0.102472 0.0895015 0)
(-0.119064 0.0913848 0)
(-0.13414 0.0874297 0)
(-0.147577 0.0795201 0)
(-0.159268 0.0689057 0)
(-0.169449 0.056454 0)
(-0.177959 0.04253 0)
(-0.184603 0.0275034 0)
(-0.19056 0.0115413 0)
(-0.195616 -0.00511098 0)
(-0.200141 -0.0219256 0)
(-0.204356 -0.0388329 0)
(-0.208153 -0.0560285 0)
(-0.210896 -0.0732224 0)
(-0.212033 -0.0894907 0)
(-0.208495 -0.103683 0)
(-0.202859 -0.114363 0)
(-0.193688 -0.121071 0)
(0.063603 -0.639091 0)
(0.0487749 -0.455672 0)
(0.0253054 -0.291723 0)
(-0.00164812 -0.159667 0)
(-0.0290759 -0.0601295 0)
(-0.0551577 0.00815399 0)
(-0.0784744 0.0476846 0)
(-0.0986117 0.0649635 0)
(-0.116136 0.0691716 0)
(-0.132527 0.0671449 0)
(-0.147808 0.061477 0)
(-0.161006 0.0530713 0)
(-0.172484 0.0428382 0)
(-0.182484 0.0311369 0)
(-0.1909 0.0181611 0)
(-0.197696 0.00423231 0)
(-0.202901 -0.01046 0)
(-0.206597 -0.0256663 0)
(-0.208431 -0.0411762 0)
(-0.209094 -0.0565977 0)
(-0.207818 -0.0707941 0)
(-0.203791 -0.0828836 0)
(-0.197018 -0.0929386 0)
(-0.187737 -0.100431 0)
(-0.176863 -0.105245 0)
(0.0701177 -0.649729 0)
(0.0561998 -0.480413 0)
(0.0337497 -0.324626 0)
(0.00730445 -0.195696 0)
(-0.0202012 -0.0958848 0)
(-0.0467511 -0.0248913 0)
(-0.0707019 0.0186971 0)
(-0.0912865 0.0397668 0)
(-0.108809 0.0464174 0)
(-0.124632 0.0458829 0)
(-0.139805 0.0422581 0)
(-0.153523 0.0361823 0)
(-0.165282 0.0281494 0)
(-0.175219 0.0186536 0)
(-0.18333 0.00805926 0)
(-0.189685 -0.00350482 0)
(-0.194265 -0.0158299 0)
(-0.19691 -0.0285634 0)
(-0.197479 -0.0413075 0)
(-0.195805 -0.0533943 0)
(-0.19162 -0.0642528 0)
(-0.185355 -0.0736302 0)
(-0.177526 -0.0813898 0)
(-0.168396 -0.0873776 0)
(-0.158761 -0.091685 0)
(0.0783742 -0.660078 0)
(0.0651975 -0.50401 0)
(0.04367 -0.356516 0)
(0.0178237 -0.231263 0)
(-0.00952394 -0.131786 0)
(-0.0362548 -0.0584604 0)
(-0.0605826 -0.0107566 0)
(-0.0813694 0.0147259 0)
(-0.0986677 0.0246834 0)
(-0.113222 0.0261561 0)
(-0.126561 0.0238147 0)
(-0.139172 0.0196781 0)
(-0.150166 0.0140758 0)
(-0.159458 0.0071233 0)
(-0.166928 -0.00101609 0)
(-0.172463 -0.0100833 0)
(-0.176028 -0.0197183 0)
(-0.177534 -0.029599 0)
(-0.176926 -0.0393809 0)
(-0.174243 -0.0486457 0)
(-0.169676 -0.0570482 0)
(-0.163638 -0.0644357 0)
(-0.156541 -0.0707433 0)
(-0.148784 -0.075959 0)
(-0.140792 -0.0801631 0)
(0.0887913 -0.670086 0)
(0.0763295 -0.526574 0)
(0.0556875 -0.387414 0)
(0.0304725 -0.26622 0)
(0.00342943 -0.167578 0)
(-0.023357 -0.0923876 0)
(-0.048048 -0.0406418 0)
(-0.0691794 -0.0102554 0)
(-0.0864256 0.00400937 0)
(-0.100457 0.00849031 0)
(-0.112105 0.00801694 0)
(-0.122462 0.00540546 0)
(-0.131721 0.00150124 0)
(-0.139548 -0.00333071 0)
(-0.145855 -0.00905155 0)
(-0.150486 -0.0155517 0)
(-0.153331 -0.0225645 0)
(-0.154337 -0.0297981 0)
(-0.153527 -0.0369865 0)
(-0.151043 -0.0439122 0)
(-0.147134 -0.0504268 0)
(-0.142097 -0.056423 0)
(-0.136227 -0.0618017 0)
(-0.12981 -0.0664929 0)
(-0.123075 -0.0704661 0)
(0.101733 -0.679532 0)
(0.0901034 -0.548078 0)
(0.070395 -0.417309 0)
(0.045858 -0.300505 0)
(0.0192014 -0.203121 0)
(-0.00755797 -0.126599 0)
(-0.0326166 -0.0711683 0)
(-0.054371 -0.0357383 0)
(-0.072065 -0.0165395 0)
(-0.0860856 -0.00811119 0)
(-0.0973124 -0.00573011 0)
(-0.106484 -0.00645228 0)
(-0.114132 -0.00858413 0)
(-0.120434 -0.0116192 0)
(-0.125444 -0.0154489 0)
(-0.129076 -0.0199037 0)
(-0.131256 -0.0247662 0)
(-0.131975 -0.029857 0)
(-0.131272 -0.0350207 0)
(-0.129277 -0.0401451 0)
(-0.126115 -0.0451419 0)
(-0.121976 -0.0499319 0)
(-0.117063 -0.054421 0)
(-0.111577 -0.0584989 0)
(-0.105689 -0.0620738 0)
(0.117489 -0.688031 0)
(0.106955 -0.568326 0)
(0.0883452 -0.446092 0)
(0.064603 -0.334046 0)
(0.0383971 -0.238326 0)
(0.0117629 -0.161009 0)
(-0.0136175 -0.102482 0)
(-0.0361357 -0.0622071 0)
(-0.0547113 -0.0377731 0)
(-0.0693252 -0.0248509 0)
(-0.0807085 -0.0189843 0)
(-0.0896701 -0.016999 0)
(-0.0967919 -0.0171029 0)
(-0.1024 -0.0184416 0)
(-0.106653 -0.0206032 0)
(-0.109613 -0.0233411 0)
(-0.111305 -0.0264869 0)
(-0.111775 -0.0298961 0)
(-0.1111 -0.0334227 0)
(-0.109365 -0.0370325 0)
(-0.106644 -0.0407203 0)
(-0.103073 -0.044418 0)
(-0.0987549 -0.0480238 0)
(-0.0938492 -0.0514284 0)
(-0.0885123 -0.0545324 0)
(0.136245 -0.695036 0)
(0.127216 -0.58694 0)
(0.110015 -0.473511 0)
(0.087296 -0.366686 0)
(0.061681 -0.273098 0)
(0.035253 -0.19548 0)
(0.00966596 -0.134536 0)
(-0.0136013 -0.0899659 0)
(-0.0333248 -0.0602987 0)
(-0.0490547 -0.0424728 0)
(-0.0612134 -0.0326656 0)
(-0.0705745 -0.0276629 0)
(-0.0778139 -0.025396 0)
(-0.083364 -0.0247419 0)
(-0.0874642 -0.025114 0)
(-0.0902503 -0.0261868 0)
(-0.0918118 -0.0277662 0)
(-0.0922305 -0.0297232 0)
(-0.0916008 -0.0319564 0)
(-0.0900015 -0.0343733 0)
(-0.087561 -0.0368693 0)
(-0.0843507 -0.0394694 0)
(-0.0804381 -0.0422025 0)
(-0.0759497 -0.0449431 0)
(-0.0710144 -0.0475687 0)
(0.158036 -0.699853 0)
(0.151059 -0.603338 0)
(0.135746 -0.499113 0)
(0.114435 -0.39811 0)
(0.0896843 -0.307245 0)
(0.0636345 -0.229878 0)
(0.0379694 -0.167157 0)
(0.0140996 -0.119031 0)
(-0.00679048 -0.0845517 0)
(-0.0239724 -0.0616746 0)
(-0.0374566 -0.0474742 0)
(-0.0478071 -0.0390051 0)
(-0.0557009 -0.0340444 0)
(-0.0616653 -0.0312056 0)
(-0.0660357 -0.0296988 0)
(-0.0690157 -0.0290817 0)
(-0.0707417 -0.0291035 0)
(-0.0713233 -0.0296199 0)
(-0.070868 -0.0305425 0)
(-0.0694867 -0.0318109 0)
(-0.0673012 -0.0333526 0)
(-0.0643899 -0.0350665 0)
(-0.0608685 -0.0369254 0)
(-0.0567905 -0.0389473 0)
(-0.0522609 -0.0410778 0)
(0.182702 -0.701667 0)
(0.178434 -0.616733 0)
(0.165658 -0.522207 0)
(0.146337 -0.427774 0)
(0.122911 -0.340388 0)
(0.0975716 -0.263946 0)
(0.0720724 -0.200114 0)
(0.0478183 -0.149194 0)
(0.0259588 -0.110594 0)
(0.0073118 -0.0829338 0)
(-0.00780898 -0.0641424 0)
(-0.0196334 -0.0517812 0)
(-0.028699 -0.0437188 0)
(-0.0355474 -0.0383991 0)
(-0.0405908 -0.0348221 0)
(-0.0441049 -0.0324002 0)
(-0.046275 -0.0308057 0)
(-0.0472439 -0.0298639 0)
(-0.0471423 -0.02948 0)
(-0.0461029 -0.0295921 0)
(-0.0442627 -0.0301372 0)
(-0.0417486 -0.0310401 0)
(-0.0386502 -0.0322123 0)
(-0.0350432 -0.0335748 0)
(-0.0310054 -0.0351361 0)
(0.209853 -0.6996 0)
(0.209004 -0.626168 0)
(0.199558 -0.541849 0)
(0.183013 -0.454853 0)
(0.161604 -0.371876 0)
(0.137526 -0.297203 0)
(0.112619 -0.233022 0)
(0.0883416 -0.180071 0)
(0.0658492 -0.138133 0)
(0.0459983 -0.106286 0)
(0.0292767 -0.0830498 0)
(0.0157453 -0.0665927 0)
(0.00511351 -0.0550717 0)
(-0.00305724 -0.0469227 0)
(-0.00919051 -0.0410011 0)
(-0.0136077 -0.0365774 0)
(-0.0165354 -0.0332259 0)
(-0.0181552 -0.030733 0)
(-0.0186364 -0.0289956 0)
(-0.0181498 -0.027948 0)
(-0.0168577 -0.02752 0)
(-0.0149019 -0.027606 0)
(-0.0123858 -0.0280924 0)
(-0.00939067 -0.0288756 0)
(-0.00593444 -0.0298949 0)
(0.238852 -0.692803 0)
(0.242103 -0.630593 0)
(0.236848 -0.55688 0)
(0.224039 -0.478217 0)
(0.205576 -0.400726 0)
(0.183573 -0.328855 0)
(0.159926 -0.265249 0)
(0.136183 -0.211111 0)
(0.113556 -0.166636 0)
(0.0929519 -0.131312 0)
(0.0749631 -0.104119 0)
(0.0598426 -0.0836996 0)
(0.0475271 -0.0685666 0)
(0.0377447 -0.0573127 0)
(0.0301539 -0.0487732 0)
(0.02445 -0.0421074 0)
(0.0204001 -0.0368052 0)